Title: **.subckt ideal_bandgap_test
Date: Sun Sep 27 14:12:49  2020
Plotname: DC transfer characteristic
Flags: real
No. Variables: 27
No. Points: 101     
Variables:
	0	temp-sweep	temp-sweep
	1	v(node1)	voltage
	2	v(net1)	voltage
	3	v(node3)	voltage
	4	v(node2)	voltage
	5	v(vdd)	voltage
	6	v(sky130_fd_pr__esd_nfet_05v0_nvt.pm3)	voltage
	7	v()	voltage
	8	v(gsu_int1)	voltage
	9	i(bgsu)	current
	10	i(v1)	current
	11	i(@r1[i])	current
	12	i(@r2[i])	current
	13	i(@q.xq1.qsky130_fd_pr__pnp_05v5_w3p40l3p40[ic])	current
	14	i(@q.xq1.qsky130_fd_pr__pnp_05v5_w3p40l3p40[ie])	current
	15	i(@q.xq1.qsky130_fd_pr__pnp_05v5_w3p40l3p40[ib])	current
	16	i(@q.xq1.qsky130_fd_pr__pnp_05v5_w3p40l3p40[is])	current
	17	i(@q.xq2.qsky130_fd_pr__pnp_05v5_w3p40l3p40[ic])	current
	18	i(@q.xq2.qsky130_fd_pr__pnp_05v5_w3p40l3p40[ie])	current
	19	i(@q.xq2.qsky130_fd_pr__pnp_05v5_w3p40l3p40[ib])	current
	20	i(@q.xq2.qsky130_fd_pr__pnp_05v5_w3p40l3p40[is])	current
	21	i(@g1[i])	current
	22	i(@g2[i])	current
	23	i(@g3[i])	current
	24	@include[current]	capacitance
	25	i(@gsu[i])	current
	26	i(@bgsu[i])	current
Values:
0		-4.000000000000000e+01
	8.335022449228339e-01
	7.911863946164545e-01
	8.335022448437153e-01
	8.335022449270654e-01
	1.800000000000000e+00
	0.000000000000000e+00
	0.000000000000000e+00
	0.000000000000000e+00
	0.000000000000000e+00
	-9.181327186524868e-05
	4.231585030637942e-06
	8.335022448437153e-05
	3.800229686182925e-06
	-4.231585032516989e-06
	4.313553467140878e-07
	-3.800229683736094e-16
	3.814867795124000e-06
	-4.231666877049910e-06
	4.167990823073977e-07
	-3.814867794395722e-16
	4.231504036056322e-06
	4.231504036056322e-06
	8.335010459603609e-05
	0.000000000000000e+00
	0.000000000000000e+00
	0.000000000000000e+00
1		-3.834999999999999e+01
	8.310324637360986e-01
	7.884556521569059e-01
	8.310324636572531e-01
	8.310324637403563e-01
	1.800000000000000e+00
	0.000000000000000e+00
	0.000000000000000e+00
	0.000000000000000e+00
	0.000000000000000e+00
	-9.161839261651039e-05
	4.257681157919269e-06
	8.310324636572531e-05
	3.866547853170686e-06
	-4.299630063894357e-06
	4.330822111065350e-07
	-3.828636408110576e-16
	3.873212549842745e-06
	-4.291030258684211e-06
	4.178177092257859e-07
	-3.843208833077018e-16
	4.257705299437475e-06
	4.257705299437475e-06
	8.310319099535945e-05
	0.000000000000000e+00
	0.000000000000000e+00
	0.000000000000000e+00
2		-3.669999999999999e+01
	8.282780682220848e-01
	7.853608079668707e-01
	8.282780681435489e-01
	8.282780682263766e-01
	1.800000000000000e+00
	0.000000000000000e+00
	0.000000000000000e+00
	0.000000000000000e+00
	0.000000000000000e+00
	-9.141117334365845e-05
	4.291726025521415e-06
	8.282780681435489e-05
	3.864943081697881e-06
	-4.292405341414237e-06
	4.274622601027881e-07
	-3.864328426988386e-16
	3.878886008773366e-06
	-4.292075351500933e-06
	4.131893431154190e-07
	-3.878518624307846e-16
	4.291789146293468e-06
	4.291789146293468e-06
	8.282774466294995e-05
	0.000000000000000e+00
	0.000000000000000e+00
	0.000000000000000e+00
3		-3.504999999999998e+01
	8.256583391092811e-01
	7.824380934951369e-01
	8.256583390310374e-01
	8.256583391136031e-01
	1.800000000000000e+00
	0.000000000000000e+00
	0.000000000000000e+00
	0.000000000000000e+00
	0.000000000000000e+00
	-9.120954200625420e-05
	4.322024561414418e-06
	8.256583390310373e-05
	3.896698366515379e-06
	-4.322172727726054e-06
	4.254743616003313e-07
	-3.896564144126382e-16
	3.910705196113957e-06
	-4.322090875036408e-06
	4.113856793135136e-07
	-3.910624522664788e-16
	4.321987212563272e-06
	4.321987212563272e-06
	8.256573202913842e-05
	0.000000000000000e+00
	0.000000000000000e+00
	0.000000000000000e+00
4		-3.339999999999998e+01
	8.230337091945915e-01
	7.795119785177785e-01
	8.230337091166403e-01
	8.230337091989436e-01
	1.800000000000000e+00
	0.000000000000000e+00
	0.000000000000000e+00
	0.000000000000000e+00
	0.000000000000000e+00
	-9.100767783820629e-05
	4.352173067681298e-06
	8.230337091166404e-05
	3.928649952594726e-06
	-4.352173124857916e-06
	4.235231726560549e-07
	-3.928649899833675e-16
	3.942428136265975e-06
	-4.352014580941161e-06
	4.095864450694287e-07
	-3.942428029553944e-16
	4.352074256530614e-06
	4.352074256530614e-06
	8.230327530611703e-05
	0.000000000000000e+00
	0.000000000000000e+00
	0.000000000000000e+00
5		-3.174999999999997e+01
	8.204067026072683e-01
	7.765825401985660e-01
	8.204067025296101e-01
	8.204067026116507e-01
	1.800000000000000e+00
	0.000000000000000e+00
	0.000000000000000e+00
	0.000000000000000e+00
	0.000000000000000e+00
	-9.080511517822742e-05
	4.382416240870235e-06
	8.204067025296101e-05
	3.960807535603507e-06
	-4.382416295368884e-06
	4.216087601614581e-07
	-3.960807485460603e-16
	3.974521657327570e-06
	-4.382361281023499e-06
	4.078396240933819e-07
	-3.974521631902282e-16
	4.382383345102880e-06
	4.382383345102880e-06
	8.204059653849072e-05
	0.000000000000000e+00
	0.000000000000000e+00
	0.000000000000000e+00
6		-3.009999999999997e+01
	8.177751768734299e-01
	7.736486236976100e-01
	8.177751767960650e-01
	8.177751768778425e-01
	1.800000000000000e+00
	0.000000000000000e+00
	0.000000000000000e+00
	0.000000000000000e+00
	0.000000000000000e+00
	-9.060231968760490e-05
	4.412655317581993e-06
	8.177751767960651e-05
	3.992947942715012e-06
	-4.412655416062390e-06
	4.197074737466733e-07
	-3.992947852507946e-16
	4.006579076528323e-06
	-4.412681671724225e-06
	4.061025955965594e-07
	-4.006578986577025e-16
	4.412581411372685e-06
	4.412581411372685e-06
	8.177747368165456e-05
	0.000000000000000e+00
	0.000000000000000e+00
	0.000000000000000e+00
7		-2.844999999999996e+01
	8.151391222062668e-01
	7.707102452198251e-01
	8.151391221291959e-01
	8.151391222107097e-01
	1.800000000000000e+00
	0.000000000000000e+00
	0.000000000000000e+00
	0.000000000000000e+00
	0.000000000000000e+00
	-9.039952419698238e-05
	4.442887698644171e-06
	8.151391221291960e-05
	4.025068793729467e-06
	-4.442887795899048e-06
	4.178190025720873e-07
	-4.025068704671553e-16
	4.038593069916607e-06
	-4.442967709671813e-06
	4.043746401590658e-07
	-4.038592980112107e-16
	4.442890499944951e-06
	4.442890499944951e-06
	8.151379571330608e-05
	0.000000000000000e+00
	0.000000000000000e+00
	0.000000000000000e+00
8		-2.679999999999995e+01
	8.124973677130226e-01
	7.677670447412779e-01
	8.124973676362459e-01
	8.124973677174956e-01
	1.800000000000000e+00
	0.000000000000000e+00
	0.000000000000000e+00
	0.000000000000000e+00
	0.000000000000000e+00
	-9.019579738378525e-05
	4.473032297174473e-06
	8.124973676362459e-05
	4.057096440586878e-06
	-4.473032409814421e-06
	4.159359696332516e-07
	-4.057096337230399e-16
	4.070337841864443e-06
	-4.472971351580317e-06
	4.026335101229077e-07
	-4.070337700851634e-16
	4.472977543912293e-06
	4.472977543912293e-06
	8.124967365574776e-05
	0.000000000000000e+00
	0.000000000000000e+00
	0.000000000000000e+00
9		-2.514999999999995e+01
	8.098526156646472e-01
	7.648199174067996e-01
	8.098526155881651e-01
	8.098526156691503e-01
	1.800000000000000e+00
	0.000000000000000e+00
	0.000000000000000e+00
	0.000000000000000e+00
	0.000000000000000e+00
	-8.999160490930080e-05
	4.503269825784761e-06
	8.098526155881651e-05
	4.089195209586963e-06
	-4.503269899533138e-06
	4.140746903550946e-07
	-4.089195141277202e-16
	4.102316430948823e-06
	-4.503245505969976e-06
	4.009290754313853e-07
	-4.102316391742643e-16
	4.503175610182097e-06
	4.503175610182097e-06
	8.098521853128204e-05
	0.000000000000000e+00
	0.000000000000000e+00
	0.000000000000000e+00
10		-2.349999999999994e+01
	8.072035544451943e-01
	7.618684572140706e-01
	8.072035543690074e-01
	8.072035544497277e-01
	1.800000000000000e+00
	0.000000000000000e+00
	0.000000000000000e+00
	0.000000000000000e+00
	0.000000000000000e+00
	-8.978741243481636e-05
	4.533509723112372e-06
	8.072035543690074e-05
	4.121283000095552e-06
	-4.533509812880777e-06
	4.122268131973532e-07
	-4.121282917481858e-16
	4.134277037855008e-06
	-4.533513164753196e-06
	3.992361273116156e-07
	-4.134276957927126e-16
	4.533373676451902e-06
	4.533373676451902e-06
	8.072031931760648e-05
	0.000000000000000e+00
	0.000000000000000e+00
	0.000000000000000e+00
11		-2.184999999999994e+01
	8.045497940587899e-01
	7.589125562042437e-01
	8.045497939828986e-01
	8.045497940633535e-01
	1.800000000000000e+00
	0.000000000000000e+00
	0.000000000000000e+00
	0.000000000000000e+00
	0.000000000000000e+00
	-8.958205580711365e-05
	4.563723785454621e-06
	8.045497939828987e-05
	4.153334102834898e-06
	-4.563723879003549e-06
	4.103897765839844e-07
	-4.153334016551643e-16
	4.166140879636369e-06
	-4.563687977019628e-06
	3.975470977998733e-07
	-4.166140785259453e-16
	4.563571742721706e-06
	4.563571742721706e-06
	8.045486499241861e-05
	0.000000000000000e+00
	0.000000000000000e+00
	0.000000000000000e+00
12		-2.019999999999993e+01
	8.018914691199752e-01
	7.559522765163827e-01
	8.018914690443800e-01
	8.018914691245691e-01
	1.800000000000000e+00
	0.000000000000000e+00
	0.000000000000000e+00
	0.000000000000000e+00
	0.000000000000000e+00
	-8.937693201005459e-05
	4.593919260359247e-06
	8.018914690443801e-05
	4.185355155716956e-06
	-4.593919350479188e-06
	4.085641951807683e-07
	-4.185355072278442e-16
	4.197928065094836e-06
	-4.593792139530763e-06
	3.958640748557202e-07
	-4.197927976532043e-16
	4.593880831293973e-06
	4.593880831293973e-06
	8.018907760032334e-05
	0.000000000000000e+00
	0.000000000000000e+00
	0.000000000000000e+00
13		-1.854999999999993e+01
	7.992299991412344e-01
	7.529880965779294e-01
	7.992299990659355e-01
	7.992299991458585e-01
	1.800000000000000e+00
	0.000000000000000e+00
	0.000000000000000e+00
	0.000000000000000e+00
	0.000000000000000e+00
	-8.917087689042091e-05
	4.624190256330496e-06
	7.992299990659356e-05
	4.217432251499969e-06
	-4.624190327366164e-06
	4.067580762879384e-07
	-4.217432185567045e-16
	4.229901827805651e-06
	-4.624113499566504e-06
	3.942116721838426e-07
	-4.229901785693223e-16
	4.624078897563777e-06
	4.624078897563777e-06
	7.992295714132069e-05
	0.000000000000000e+00
	0.000000000000000e+00
	0.000000000000000e+00
14		-1.689999999999992e+01
	7.965635480001962e-01
	7.500194393146565e-01
	7.965635479251942e-01
	7.965635480048505e-01
	1.800000000000000e+00
	0.000000000000000e+00
	0.000000000000000e+00
	0.000000000000000e+00
	0.000000000000000e+00
	-8.896505460143089e-05
	4.654410868553971e-06
	7.965635479251943e-05
	4.249450482171336e-06
	-4.654410961728680e-06
	4.049604799822889e-07
	-4.249450395895481e-16
	4.261710212015918e-06
	-4.654266995115347e-06
	3.925567835255999e-07
	-4.261710107887218e-16
	4.654276963833581e-06
	4.654276963833581e-06
	7.965628157080573e-05
	0.000000000000000e+00
	0.000000000000000e+00
	0.000000000000000e+00
15		-1.524999999999994e+01
	7.938939576054302e-01
	7.470469193775894e-01
	7.938939575307256e-01
	7.938939576101148e-01
	1.800000000000000e+00
	0.000000000000000e+00
	0.000000000000000e+00
	0.000000000000000e+00
	0.000000000000000e+00
	-8.875830098986626e-05
	4.684703822784086e-06
	7.938939575307256e-05
	4.281522178343340e-06
	-4.684703891692604e-06
	4.031817137774162e-07
	-4.281522114360590e-16
	4.293696827002850e-06
	-4.684627880635965e-06
	3.909310540624851e-07
	-4.293696785520433e-16
	4.684586052405848e-06
	4.684586052405848e-06
	7.938927293338338e-05
	0.000000000000000e+00
	0.000000000000000e+00
	0.000000000000000e+00
16		-1.359999999999997e+01
	7.912205492540496e-01
	7.440703345635051e-01
	7.912205491796426e-01
	7.912205492587645e-01
	1.800000000000000e+00
	0.000000000000000e+00
	0.000000000000000e+00
	0.000000000000000e+00
	0.000000000000000e+00
	-8.855178020894527e-05
	4.715021469054448e-06
	7.912205491796427e-05
	4.313603989133054e-06
	-4.715021545075202e-06
	4.014175563735074e-07
	-4.313603918702623e-16
	4.325728635929205e-06
	-4.715050476847988e-06
	3.893218413513558e-07
	-4.325728575196620e-16
	4.714895140978115e-06
	4.714895140978115e-06
	7.912193122905364e-05
	0.000000000000000e+00
	0.000000000000000e+00
	0.000000000000000e+00
17		-1.194999999999999e+01
	7.885421506956245e-01
	7.410893221676071e-01
	7.885421506215156e-01
	7.885421507003697e-01
	1.800000000000000e+00
	0.000000000000000e+00
	0.000000000000000e+00
	0.000000000000000e+00
	0.000000000000000e+00
	-8.834432810544968e-05
	4.745282852801735e-06
	7.885421506215156e-05
	4.345621718737352e-06
	-4.745282942310144e-06
	3.996612240073536e-07
	-4.345621635707276e-16
	4.357578495831199e-06
	-4.745287190120870e-06
	3.877086947254284e-07
	-4.357578393104633e-16
	4.745204229550382e-06
	4.745204229550382e-06
	7.885414543551406e-05
	0.000000000000000e+00
	0.000000000000000e+00
	0.000000000000000e+00
18		-1.030000000000001e+01
	7.858609145965110e-01
	7.381045970234539e-01
	7.858609145227006e-01
	7.858609146012866e-01
	1.800000000000000e+00
	0.000000000000000e+00
	0.000000000000000e+00
	0.000000000000000e+00
	0.000000000000000e+00
	-8.813734166324139e-05
	4.775631757305710e-06
	7.858609145227006e-05
	4.377707401945102e-06
	-4.775631819730253e-06
	3.979244182229214e-07
	-4.377707343735156e-16
	4.389650103876083e-06
	-4.775777631529058e-06
	3.861275280919390e-07
	-4.389650070449336e-16
	4.775624340425111e-06
	4.775624340425111e-06
	7.858602657506708e-05
	0.000000000000000e+00
	0.000000000000000e+00
	0.000000000000000e+00
19		-8.650000000000034e+00
	7.831732876239645e-01
	7.351150246535136e-01
	7.831732875504530e-01
	7.831732876287703e-01
	1.800000000000000e+00
	0.000000000000000e+00
	0.000000000000000e+00
	0.000000000000000e+00
	0.000000000000000e+00
	-8.792825974524021e-05
	4.805826297045091e-06
	7.831732875504531e-05
	4.409638958488231e-06
	-4.805826403014104e-06
	3.961874449668368e-07
	-4.409638860117544e-16
	4.421263829353321e-06
	-4.805782313439638e-06
	3.845184845284439e-07
	-4.421263663196562e-16
	4.805711384392453e-06
	4.805711384392453e-06
	7.831724158080533e-05
	0.000000000000000e+00
	0.000000000000000e+00
	0.000000000000000e+00
20		-7.000000000000057e+00
	7.804826767045727e-01
	7.321217256751644e-01
	7.804826766313605e-01
	7.804826767094087e-01
	1.800000000000000e+00
	0.000000000000000e+00
	0.000000000000000e+00
	0.000000000000000e+00
	0.000000000000000e+00
	-8.772010914981365e-05
	4.836095102940830e-06
	7.804826766313605e-05
	4.441626439531076e-06
	-4.836095164951387e-06
	3.944687258644732e-07
	-4.441626381504766e-16
	4.453062122501887e-06
	-4.836000124548551e-06
	3.829380024919710e-07
	-4.453062086007351e-16
	4.836020472964719e-06
	4.836020472964719e-06
	7.804823454193865e-05
	0.000000000000000e+00
	0.000000000000000e+00
	0.000000000000000e+00
21		-5.350000000000080e+00
	7.777897081779710e-01
	7.291249200573870e-01
	7.777897081050585e-01
	7.777897081828374e-01
	1.800000000000000e+00
	0.000000000000000e+00
	0.000000000000000e+00
	0.000000000000000e+00
	0.000000000000000e+00
	-8.751219138503075e-05
	4.866478812058395e-06
	7.777897081050586e-05
	4.473707685296119e-06
	-4.866478866361467e-06
	3.927711815127190e-07
	-4.473707634131737e-16
	4.485160129013638e-06
	-4.866555344222720e-06
	3.813952156575981e-07
	-4.485160106149702e-16
	4.866440583839449e-06
	4.866440583839449e-06
	7.777889443616459e-05
	0.000000000000000e+00
	0.000000000000000e+00
	0.000000000000000e+00
22		-3.700000000000102e+00
	7.750907868306548e-01
	7.261234589283988e-01
	7.750907867580425e-01
	7.750907868355515e-01
	1.800000000000000e+00
	0.000000000000000e+00
	0.000000000000000e+00
	0.000000000000000e+00
	0.000000000000000e+00
	-8.730264380574226e-05
	4.896732790225600e-06
	7.750907867580425e-05
	4.505657448063985e-06
	-4.896732886150717e-06
	3.910754385372974e-07
	-4.505657358706665e-16
	4.516868916764888e-06
	-4.896700141567344e-06
	3.798312252541427e-07
	-4.516868774927761e-16
	4.896749672411715e-06
	4.896749672411715e-06
	7.750899921887822e-05
	0.000000000000000e+00
	0.000000000000000e+00
	0.000000000000000e+00
23		-2.050000000000125e+00
	7.723887822233616e-01
	7.231182881765487e-01
	7.723887821510498e-01
	7.723887822282886e-01
	1.800000000000000e+00
	0.000000000000000e+00
	0.000000000000000e+00
	0.000000000000000e+00
	0.000000000000000e+00
	-8.709239773452282e-05
	4.927049404681295e-06
	7.723887821510498e-05
	4.537652966881133e-06
	-4.927049465013554e-06
	3.893964985861862e-07
	-4.537652910268554e-16
	4.548730342650904e-06
	-4.927022406215298e-06
	3.782920640192658e-07
	-4.548730304364812e-16
	4.926947738681520e-06
	4.926947738681520e-06
	7.723877093468445e-05
	0.000000000000000e+00
	0.000000000000000e+00
	0.000000000000000e+00
24		-4.000000000001478e-01
	7.696825077099867e-01
	7.201090396171932e-01
	7.696825076379759e-01
	7.696825077149441e-01
	1.800000000000000e+00
	0.000000000000000e+00
	0.000000000000000e+00
	0.000000000000000e+00
	0.000000000000000e+00
	-8.688331581652164e-05
	4.957346809279350e-06
	7.696825076379758e-05
	4.569618979447042e-06
	-4.957346881808577e-06
	3.877279028184965e-07
	-4.569618911489781e-16
	4.580513853999096e-06
	-4.957272075989492e-06
	3.767582224484482e-07
	-4.580513781519916e-16
	4.957367849556249e-06
	4.957367849556249e-06
	7.696820958358330e-05
	0.000000000000000e+00
	0.000000000000000e+00
	0.000000000000000e+00
25		1.249999999999829e+00
	7.669723427282501e-01
	7.170958518610283e-01
	7.669723426565405e-01
	7.669723427332377e-01
	1.800000000000000e+00
	0.000000000000000e+00
	0.000000000000000e+00
	0.000000000000000e+00
	0.000000000000000e+00
	-8.667260408401489e-05
	4.987649086722179e-06
	7.669723426565405e-05
	4.601577740943005e-06
	-4.987649153987137e-06
	3.860714135042892e-07
	-4.601577677821183e-16
	4.612287354416224e-06
	-4.987522670939699e-06
	3.752353169847036e-07
	-4.612287294472883e-16
	4.987565915826053e-06
	4.987565915826053e-06
	7.669720414327230e-05
	0.000000000000000e+00
	0.000000000000000e+00
	0.000000000000000e+00
26		2.899999999999807e+00
	7.642588496325866e-01
	7.140789228713771e-01
	7.642588495611788e-01
	7.642588496376046e-01
	1.800000000000000e+00
	0.000000000000000e+00
	0.000000000000000e+00
	0.000000000000000e+00
	0.000000000000000e+00
	-8.646189235150814e-05
	5.017992676120953e-06
	7.642588495611789e-05
	4.633563091744901e-06
	-5.017992736122195e-06
	3.844296448406498e-07
	-4.633563035051636e-16
	4.644153965467354e-06
	-5.017885524361318e-06
	3.737315593583796e-07
	-4.644153921680542e-16
	5.017986026700783e-06
	5.017986026700783e-06
	7.642575461375145e-05
	0.000000000000000e+00
	0.000000000000000e+00
	0.000000000000000e+00
27		4.549999999999784e+00
	7.615416037476178e-01
	7.110581305431724e-01
	7.615416036765120e-01
	7.615416037526661e-01
	1.800000000000000e+00
	0.000000000000000e+00
	0.000000000000000e+00
	0.000000000000000e+00
	0.000000000000000e+00
	-8.625094778835773e-05
	5.048347320444547e-06
	7.615416036765121e-05
	4.665547204945355e-06
	-5.048347384570213e-06
	3.828001800914132e-07
	-4.665547144829512e-16
	4.676028361526951e-06
	-5.048268153570095e-06
	3.722397925107475e-07
	-4.676028306314778e-16
	5.048295115273049e-06
	5.048295115273049e-06
	7.615408303962568e-05
	0.000000000000000e+00
	0.000000000000000e+00
	0.000000000000000e+00
28		6.199999999999761e+00
	7.588208690277440e-01
	7.080335756687081e-01
	7.588208689569408e-01
	7.588208690328228e-01
	1.800000000000000e+00
	0.000000000000000e+00
	0.000000000000000e+00
	0.000000000000000e+00
	0.000000000000000e+00
	-8.603930473327637e-05
	5.078729335903598e-06
	7.588208689569408e-05
	4.697545301910436e-06
	-5.078729395913121e-06
	3.811840944724397e-07
	-4.697545245153297e-16
	4.707956822791267e-06
	-5.078720354386649e-06
	3.707635320661783e-07
	-4.707956775248413e-16
	5.078715226147779e-06
	5.078715226147779e-06
	7.588196737629005e-05
	0.000000000000000e+00
	0.000000000000000e+00
	0.000000000000000e+00
29		7.849999999999739e+00
	7.560949858700946e-01
	7.050047356939333e-01
	7.560949857995942e-01
	7.560949858752036e-01
	1.800000000000000e+00
	0.000000000000000e+00
	0.000000000000000e+00
	0.000000000000000e+00
	0.000000000000000e+00
	-8.582719601690769e-05
	5.109025017616131e-06
	7.560949857995942e-05
	4.729452077453586e-06
	-5.109025095631260e-06
	3.795730186506184e-07
	-4.729452004352420e-16
	4.739617351683226e-06
	-5.108894759526437e-06
	3.692774083171729e-07
	-4.739617249436955e-16
	5.109024314720045e-06
	5.109024314720045e-06
	7.560940762374457e-05
	0.000000000000000e+00
	0.000000000000000e+00
	0.000000000000000e+00
30		9.499999999999716e+00
	7.533668748985923e-01
	7.019725718207475e-01
	7.533668748283951e-01
	7.533668749037318e-01
	1.800000000000000e+00
	0.000000000000000e+00
	0.000000000000000e+00
	0.000000000000000e+00
	0.000000000000000e+00
	-8.561555296182632e-05
	5.139430307784487e-06
	7.533668748283952e-05
	4.761449282965644e-06
	-5.139430353943170e-06
	3.779810714536708e-07
	-4.761449239006586e-16
	4.771565032792131e-06
	-5.139389856212988e-06
	3.678248238980137e-07
	-4.771565013275431e-16
	5.139444425594775e-06
	5.139444425594775e-06
	7.533662582659417e-05
	0.000000000000000e+00
	0.000000000000000e+00
	0.000000000000000e+00
31		1.114999999999969e+01
	7.506340148852261e-01
	6.989362822168271e-01
	7.506340148153325e-01
	7.506340148903958e-01
	1.800000000000000e+00
	0.000000000000000e+00
	0.000000000000000e+00
	0.000000000000000e+00
	0.000000000000000e+00
	-8.540321141481400e-05
	5.169773266839894e-06
	7.506340148153326e-05
	4.793377588989778e-06
	-5.169773337878283e-06
	3.763957493678429e-07
	-4.793377521866530e-16
	4.803312733514155e-06
	-5.169680482375630e-06
	3.663677493418065e-07
	-4.803312647354406e-16
	5.169753514167041e-06
	5.169753514167041e-06
	7.506328891793146e-05
	0.000000000000000e+00
	0.000000000000000e+00
	0.000000000000000e+00
32		1.279999999999967e+01
	7.478978649326081e-01
	6.958963540491718e-01
	7.478978648630185e-01
	7.478978649378082e-01
	1.800000000000000e+00
	0.000000000000000e+00
	0.000000000000000e+00
	0.000000000000000e+00
	0.000000000000000e+00
	-8.518993854522705e-05
	5.200151088343630e-06
	7.478978648630184e-05
	4.825327235314696e-06
	-5.200151143290386e-06
	3.748239084582229e-07
	-4.825327183256671e-16
	4.835136001506442e-06
	-5.200063389820493e-06
	3.649273887975648e-07
	-4.835135960059335e-16
	5.200062602739308e-06
	5.200062602739308e-06
	7.478972996466382e-05
	0.000000000000000e+00
	0.000000000000000e+00
	0.000000000000000e+00
33		1.444999999999965e+01
	7.451583344771138e-01
	6.928527726616708e-01
	7.451583344078285e-01
	7.451583344823443e-01
	1.800000000000000e+00
	0.000000000000000e+00
	0.000000000000000e+00
	0.000000000000000e+00
	0.000000000000000e+00
	-8.497643284499645e-05
	5.230556181544300e-06
	7.451583344078286e-05
	4.857291373853915e-06
	-5.230556236604530e-06
	3.732648632363447e-07
	-4.857291321638118e-16
	4.867013539519965e-06
	-5.230515399309018e-06
	3.635018602757548e-07
	-4.867013496023444e-16
	5.230482713614037e-06
	5.230482713614037e-06
	7.451572692218633e-05
	0.000000000000000e+00
	0.000000000000000e+00
	0.000000000000000e+00
34		1.609999999999962e+01
	7.424145360846525e-01
	6.898052648474130e-01
	7.424145360156719e-01
	7.424145360899133e-01
	1.800000000000000e+00
	0.000000000000000e+00
	0.000000000000000e+00
	0.000000000000000e+00
	0.000000000000000e+00
	-8.476315997540951e-05
	5.260927123723946e-06
	7.424145360156719e-05
	4.889212944443523e-06
	-5.260927187097829e-06
	3.717142431432267e-07
	-4.889212884499981e-16
	4.898770880561217e-06
	-5.260848885928691e-06
	3.620780058573516e-07
	-4.898770811957095e-16
	5.260791802186304e-06
	5.260791802186304e-06
	7.424139081280146e-05
	0.000000000000000e+00
	0.000000000000000e+00
	0.000000000000000e+00
35		1.774999999999960e+01
	7.396679411119967e-01
	6.867543214462165e-01
	7.396679410433213e-01
	7.396679411172881e-01
	1.800000000000000e+00
	0.000000000000000e+00
	0.000000000000000e+00
	0.000000000000000e+00
	0.000000000000000e+00
	-8.454918861389160e-05
	5.291361966578023e-06
	7.396679410433214e-05
	4.921183308151779e-06
	-5.291362014633905e-06
	3.701787069742437e-07
	-4.921183262364577e-16
	4.930686761868027e-06
	-5.291363193921930e-06
	3.606764325469716e-07
	-4.930686732224579e-16
	5.291322935363496e-06
	5.291322935363496e-06
	7.396672163650919e-05
	0.000000000000000e+00
	0.000000000000000e+00
	0.000000000000000e+00
36		1.939999999999958e+01
	7.369162860089113e-01
	6.836992233340808e-01
	7.369162859405415e-01
	7.369162860142331e-01
	1.800000000000000e+00
	0.000000000000000e+00
	0.000000000000000e+00
	0.000000000000000e+00
	0.000000000000000e+00
	-8.433521725237370e-05
	5.321706267483051e-06
	7.369162859405415e-05
	4.953058713314696e-06
	-5.321706337462844e-06
	3.686476246434538e-07
	-4.953058646913911e-16
	4.962321973451474e-06
	-5.321586768731738e-06
	3.592647957764967e-07
	-4.962321878287240e-16
	5.321743046238225e-06
	5.321743046238225e-06
	7.369160837100708e-05
	0.000000000000000e+00
	0.000000000000000e+00
	0.000000000000000e+00
37		2.104999999999956e+01
	7.341615655481137e-01
	6.806406304733800e-01
	7.341615654800496e-01
	7.341615655534657e-01
	1.800000000000000e+00
	0.000000000000000e+00
	0.000000000000000e+00
	0.000000000000000e+00
	0.000000000000000e+00
	-8.411984890699387e-05
	5.352093507473377e-06
	7.341615654800496e-05
	4.984963557483715e-06
	-5.352093556654058e-06
	3.671299996688403e-07
	-4.984963510581732e-16
	4.994056164538769e-06
	-5.351927055912927e-06
	3.578708918735639e-07
	-4.994056129408922e-16
	5.351941112508030e-06
	5.351941112508030e-06
	7.341605101629511e-05
	0.000000000000000e+00
	0.000000000000000e+00
	0.000000000000000e+00
38		2.269999999999953e+01
	7.314046359121101e-01
	6.775788341837723e-01
	7.314046358443522e-01
	7.314046359174926e-01
	1.800000000000000e+00
	0.000000000000000e+00
	0.000000000000000e+00
	0.000000000000000e+00
	0.000000000000000e+00
	-8.390564471483231e-05
	5.382580172833784e-06
	7.314046358443522e-05
	5.016950812452982e-06
	-5.382580213939486e-06
	3.656294019881992e-07
	-5.016950773151473e-16
	5.026050592751022e-06
	-5.382556464714079e-06
	3.565058724656616e-07
	-5.026050574319270e-16
	5.382472245685221e-06
	5.382472245685221e-06
	7.314038263928069e-05
	0.000000000000000e+00
	0.000000000000000e+00
	0.000000000000000e+00
39		2.434999999999951e+01
	7.286429430665662e-01
	6.745130207186375e-01
	7.286429429991148e-01
	7.286429430719791e-01
	1.800000000000000e+00
	0.000000000000000e+00
	0.000000000000000e+00
	0.000000000000000e+00
	0.000000000000000e+00
	-8.369027636945248e-05
	5.412992234792869e-06
	7.286429429991148e-05
	5.048858147433854e-06
	-5.412992299326993e-06
	3.641341523980257e-07
	-5.048858086219993e-16
	5.057809543567922e-06
	-5.412943703388360e-06
	3.551341603262187e-07
	-5.057809460483706e-16
	5.412892356559951e-06
	5.412892356559951e-06
	7.286427017305641e-05
	0.000000000000000e+00
	0.000000000000000e+00
	0.000000000000000e+00
40		2.599999999999949e+01
	7.258776166183383e-01
	6.714435693300429e-01
	7.258776165511940e-01
	7.258776166237817e-01
	1.800000000000000e+00
	0.000000000000000e+00
	0.000000000000000e+00
	0.000000000000000e+00
	0.000000000000000e+00
	-8.347444236278534e-05
	5.443404728829538e-06
	7.258776165511940e-05
	5.080755608611142e-06
	-5.443404781035142e-06
	3.626491729320759e-07
	-5.080755558557002e-16
	5.089546672810710e-06
	-5.443317726330289e-06
	3.537710540285345e-07
	-5.089546624448288e-16
	5.443423489737143e-06
	5.443423489737143e-06
	7.258771361762228e-05
	0.000000000000000e+00
	0.000000000000000e+00
	0.000000000000000e+00
41		2.764999999999947e+01
	7.231094036798490e-01
	6.683707355372499e-01
	7.231094036130120e-01
	7.231094036853228e-01
	1.800000000000000e+00
	0.000000000000000e+00
	0.000000000000000e+00
	0.000000000000000e+00
	0.000000000000000e+00
	-8.325837552547455e-05
	5.473866814259909e-06
	7.231094036130120e-05
	5.112689319269222e-06
	-5.473866859221019e-06
	3.611775404630668e-07
	-5.112689276134119e-16
	5.121402361507241e-06
	-5.473828553683033e-06
	3.524261926879321e-07
	-5.121402330920920e-16
	5.473843600611872e-06
	5.473843600611872e-06
	7.231082399528077e-05
	0.000000000000000e+00
	0.000000000000000e+00
	0.000000000000000e+00
42		2.929999999999944e+01
	7.203373457905681e-01
	6.652942221120925e-01
	7.203373457240386e-01
	7.203373457960723e-01
	1.800000000000000e+00
	0.000000000000000e+00
	0.000000000000000e+00
	0.000000000000000e+00
	0.000000000000000e+00
	-8.304230868816376e-05
	5.504312367847553e-06
	7.203373457240386e-05
	5.144597552264557e-06
	-5.504312421167112e-06
	3.597148694170155e-07
	-5.144597501552609e-16
	5.153187993799247e-06
	-5.504274328705464e-06
	3.510863354215360e-07
	-5.153187940273290e-16
	5.504263711486601e-06
	5.504263711486601e-06
	7.203371232833433e-05
	0.000000000000000e+00
	0.000000000000000e+00
	0.000000000000000e+00
43		3.094999999999942e+01
	7.175618620870940e-01
	6.622141778394945e-01
	7.175618620208727e-01
	7.175618620926288e-01
	1.800000000000000e+00
	0.000000000000000e+00
	0.000000000000000e+00
	0.000000000000000e+00
	0.000000000000000e+00
	-8.282624185085297e-05
	5.534768424759951e-06
	7.175618620208727e-05
	5.176505664086940e-06
	-5.534768473368426e-06
	3.582628097991360e-07
	-5.176505617571267e-16
	5.184980723958420e-06
	-5.534737474795335e-06
	3.497567513554123e-07
	-5.184980681554214e-16
	5.534794844663793e-06
	5.534794844663793e-06
	7.175615657217804e-05
	0.000000000000000e+00
	0.000000000000000e+00
	0.000000000000000e+00
44		3.259999999999940e+01
	7.147827102565300e-01
	6.591305372644295e-01
	7.147827101906170e-01
	7.147827102620952e-01
	1.800000000000000e+00
	0.000000000000000e+00
	0.000000000000000e+00
	0.000000000000000e+00
	0.000000000000000e+00
	-8.260831236839294e-05
	5.565217299210046e-06
	7.147827101906171e-05
	5.208397194110383e-06
	-5.565217349341627e-06
	3.568201557520828e-07
	-5.208397146100104e-16
	5.216730048205003e-06
	-5.565163989632166e-06
	3.484339419488359e-07
	-5.216729999926329e-16
	5.565214955538522e-06
	5.565214955538522e-06
	7.147815672681190e-05
	0.000000000000000e+00
	0.000000000000000e+00
	0.000000000000000e+00
45		3.424999999999937e+01
	7.120005380420704e-01
	6.560435229988759e-01
	7.120005379764662e-01
	7.120005380476662e-01
	1.800000000000000e+00
	0.000000000000000e+00
	0.000000000000000e+00
	0.000000000000000e+00
	0.000000000000000e+00
	-8.239154703915119e-05
	5.595701504319451e-06
	7.120005379764663e-05
	5.240312080595103e-06
	-5.595701548226294e-06
	3.553894681552225e-07
	-5.240312038477385e-16
	5.248557535647710e-06
	-5.595683506775762e-06
	3.471259716529076e-07
	-5.248557502880984e-16
	5.595746088715714e-06
	5.595746088715714e-06
	7.119993483684084e-05