Title: **.subckt bandgap_opamp_test_op
Date: Sun Nov  8 19:58:16  2020
Plotname: DC transfer characteristic
Flags: real
No. Variables: 472
No. Points: 101
Variables:
	0	temp-sweep	temp-sweep
	1	v()	voltage
	2	v(@m.x5.xmcas.msky130_fd_pr__pfet_01v8_lvt[vds])	voltage
	3	v(@m.x5.xmcas.msky130_fd_pr__pfet_01v8_lvt[vdsat])	voltage
	4	v(@m.x5.xmcurr.msky130_fd_pr__pfet_01v8[vds])	voltage
	5	v(@m.x5.xmcurr.msky130_fd_pr__pfet_01v8[vdsat])	voltage
	6	v(@m.x6.xmcas.msky130_fd_pr__pfet_01v8_lvt[vds])	voltage
	7	v(@m.x6.xmcas.msky130_fd_pr__pfet_01v8_lvt[vdsat])	voltage
	8	v(@m.x6.xmcurr.msky130_fd_pr__pfet_01v8[vds])	voltage
	9	v(@m.x6.xmcurr.msky130_fd_pr__pfet_01v8[vdsat])	voltage
	10	v(@m.x7.xmcas.msky130_fd_pr__pfet_01v8_lvt[vds])	voltage
	11	v(@m.x7.xmcas.msky130_fd_pr__pfet_01v8_lvt[vdsat])	voltage
	12	v(@m.x7.xmcurr.msky130_fd_pr__pfet_01v8[vds])	voltage
	13	v(@m.x7.xmcurr.msky130_fd_pr__pfet_01v8[vdsat])	voltage
	14	v(@m.x10.xmcas.msky130_fd_pr__pfet_01v8_lvt[vds])	voltage
	15	v(@m.x10.xmcas.msky130_fd_pr__pfet_01v8_lvt[vdsat])	voltage
	16	v(@m.x10.xmcurr.msky130_fd_pr__pfet_01v8[vds])	voltage
	17	v(@m.x10.xmcurr.msky130_fd_pr__pfet_01v8[vdsat])	voltage
	18	v(@m.x11.xmcas.msky130_fd_pr__pfet_01v8_lvt[vds])	voltage
	19	v(@m.x11.xmcas.msky130_fd_pr__pfet_01v8_lvt[vdsat])	voltage
	20	v(@m.x11.xmcurr.msky130_fd_pr__pfet_01v8[vds])	voltage
	21	v(@m.x11.xmcurr.msky130_fd_pr__pfet_01v8[vdsat])	voltage
	22	v(@m.xbmr.xccomp.msky130_fd_pr__cap_mim_m3_1[vds])	voltage dims=0
	23	v(@m.xbmr.xccomp.msky130_fd_pr__cap_mim_m3_1[vdsat])	voltage dims=0
	24	v(@m.xbmr.xcfilt.msky130_fd_pr__cap_mim_m3_1[vds])	voltage dims=0
	25	v(@m.xbmr.xcfilt.msky130_fd_pr__cap_mim_m3_1[vdsat])	voltage dims=0
	26	v(@m.xbmr.xmcurr_bias.msky130_fd_pr__pfet_01v8_lvt[vds])	voltage
	27	v(@m.xbmr.xmcurr_bias.msky130_fd_pr__pfet_01v8_lvt[vdsat])	voltage
	28	v(@m.xbmr.xmcurr_p1.msky130_fd_pr__pfet_01v8_lvt[vds])	voltage
	29	v(@m.xbmr.xmcurr_p1.msky130_fd_pr__pfet_01v8_lvt[vdsat])	voltage
	30	v(@m.xbmr.xmcurr_p2.msky130_fd_pr__pfet_01v8_lvt[vds])	voltage
	31	v(@m.xbmr.xmcurr_p2.msky130_fd_pr__pfet_01v8_lvt[vdsat])	voltage
	32	v(@m.xbmr.xmdiff_n1.msky130_fd_pr__nfet_01v8[vds])	voltage
	33	v(@m.xbmr.xmdiff_n1.msky130_fd_pr__nfet_01v8[vdsat])	voltage
	34	v(@m.xbmr.xmdiff_n2.msky130_fd_pr__nfet_01v8[vds])	voltage
	35	v(@m.xbmr.xmdiff_n2.msky130_fd_pr__nfet_01v8[vdsat])	voltage
	36	v(@m.xbmr.xmdiff_n3.msky130_fd_pr__nfet_01v8[vds])	voltage
	37	v(@m.xbmr.xmdiff_n3.msky130_fd_pr__nfet_01v8[vdsat])	voltage
	38	v(@m.xbmr.xmdum1.msky130_fd_pr__nfet_01v8[vds])	voltage
	39	v(@m.xbmr.xmdum1.msky130_fd_pr__nfet_01v8[vdsat])	voltage
	40	v(@m.xbmr.xmdum2.msky130_fd_pr__nfet_01v8[vds])	voltage
	41	v(@m.xbmr.xmdum2.msky130_fd_pr__nfet_01v8[vdsat])	voltage
	42	v(@m.xbmr.xmsw_en1.msky130_fd_pr__pfet_01v8_lvt[vds])	voltage
	43	v(@m.xbmr.xmsw_en1.msky130_fd_pr__pfet_01v8_lvt[vdsat])	voltage
	44	v(@m.xbmr.xmsw_en2.msky130_fd_pr__pfet_01v8_lvt[vds])	voltage
	45	v(@m.xbmr.xmsw_en2.msky130_fd_pr__pfet_01v8_lvt[vdsat])	voltage
	46	v(@m.xbmr.xmsw_start.msky130_fd_pr__nfet_01v8[vds])	voltage
	47	v(@m.xbmr.xmsw_start.msky130_fd_pr__nfet_01v8[vdsat])	voltage
	48	v(@m.xbmr.xrbias.msky130_fd_pr__res_xhigh_po[vds])	voltage dims=0
	49	v(@m.xbmr.xrbias.msky130_fd_pr__res_xhigh_po[vdsat])	voltage dims=0
	50	v(@m.xctatop.xmcas_rload.msky130_fd_pr__pfet_01v8_lvt[vds])	voltage
	51	v(@m.xctatop.xmcas_rload.msky130_fd_pr__pfet_01v8_lvt[vdsat])	voltage
	52	v(@m.xctatop.xmcasba.msky130_fd_pr__nfet_01v8_lvt[vds])	voltage
	53	v(@m.xctatop.xmcasba.msky130_fd_pr__nfet_01v8_lvt[vdsat])	voltage
	54	v(@m.xctatop.xmcasn.msky130_fd_pr__nfet_01v8_lvt[vds])	voltage
	55	v(@m.xctatop.xmcasn.msky130_fd_pr__nfet_01v8_lvt[vdsat])	voltage
	56	v(@m.xctatop.xmcasp.msky130_fd_pr__nfet_01v8_lvt[vds])	voltage
	57	v(@m.xctatop.xmcasp.msky130_fd_pr__nfet_01v8_lvt[vdsat])	voltage
	58	v(@m.xctatop.xmcpa.msky130_fd_pr__pfet_01v8_lvt[vds])	voltage
	59	v(@m.xctatop.xmcpa.msky130_fd_pr__pfet_01v8_lvt[vdsat])	voltage
	60	v(@m.xctatop.xmcpdiff.msky130_fd_pr__pfet_01v8_lvt[vds])	voltage
	61	v(@m.xctatop.xmcpdiff.msky130_fd_pr__pfet_01v8_lvt[vdsat])	voltage
	62	v(@m.xctatop.xmcpdiff1.msky130_fd_pr__pfet_01v8_lvt[vds])	voltage
	63	v(@m.xctatop.xmcpdiff1.msky130_fd_pr__pfet_01v8_lvt[vdsat])	voltage
	64	v(@m.xctatop.xmdiffn.msky130_fd_pr__pfet_01v8_lvt[vds])	voltage
	65	v(@m.xctatop.xmdiffn.msky130_fd_pr__pfet_01v8_lvt[vdsat])	voltage
	66	v(@m.xctatop.xmdiffp.msky130_fd_pr__pfet_01v8_lvt[vds])	voltage
	67	v(@m.xctatop.xmdiffp.msky130_fd_pr__pfet_01v8_lvt[vdsat])	voltage
	68	v(@m.xctatop.xmload_mn.msky130_fd_pr__pfet_01v8_lvt[vds])	voltage
	69	v(@m.xctatop.xmload_mn.msky130_fd_pr__pfet_01v8_lvt[vdsat])	voltage
	70	v(@m.xctatop.xmload_mp.msky130_fd_pr__pfet_01v8_lvt[vds])	voltage
	71	v(@m.xctatop.xmload_mp.msky130_fd_pr__pfet_01v8_lvt[vdsat])	voltage
	72	v(@m.xctatop.xmloadcn.msky130_fd_pr__pfet_01v8_lvt[vds])	voltage
	73	v(@m.xctatop.xmloadcn.msky130_fd_pr__pfet_01v8_lvt[vdsat])	voltage
	74	v(@m.xctatop.xmloadcp.msky130_fd_pr__pfet_01v8_lvt[vds])	voltage
	75	v(@m.xctatop.xmloadcp.msky130_fd_pr__pfet_01v8_lvt[vdsat])	voltage
	76	v(@m.xctatop.xmmfn.msky130_fd_pr__nfet_01v8_lvt[vds])	voltage
	77	v(@m.xctatop.xmmfn.msky130_fd_pr__nfet_01v8_lvt[vdsat])	voltage
	78	v(@m.xctatop.xmmfp.msky130_fd_pr__nfet_01v8_lvt[vds])	voltage
	79	v(@m.xctatop.xmmfp.msky130_fd_pr__nfet_01v8_lvt[vdsat])	voltage
	80	v(@m.xctatop.xmmna.msky130_fd_pr__nfet_01v8_lvt[vds])	voltage
	81	v(@m.xctatop.xmmna.msky130_fd_pr__nfet_01v8_lvt[vdsat])	voltage
	82	v(@m.xctatop.xmmnb.msky130_fd_pr__nfet_01v8_lvt[vds])	voltage
	83	v(@m.xctatop.xmmnb.msky130_fd_pr__nfet_01v8_lvt[vdsat])	voltage
	84	v(@m.xctatop.xmmnc.msky130_fd_pr__nfet_01v8_lvt[vds])	voltage
	85	v(@m.xctatop.xmmnc.msky130_fd_pr__nfet_01v8_lvt[vdsat])	voltage
	86	v(@m.xctatop.xmmnr.msky130_fd_pr__nfet_01v8_lvt[vds])	voltage
	87	v(@m.xctatop.xmmnr.msky130_fd_pr__nfet_01v8_lvt[vdsat])	voltage
	88	v(@m.xctatop.xmmpa.msky130_fd_pr__pfet_01v8_lvt[vds])	voltage
	89	v(@m.xctatop.xmmpa.msky130_fd_pr__pfet_01v8_lvt[vdsat])	voltage
	90	v(@m.xctatop.xmmpdiff.msky130_fd_pr__pfet_01v8_lvt[vds])	voltage
	91	v(@m.xctatop.xmmpdiff.msky130_fd_pr__pfet_01v8_lvt[vdsat])	voltage
	92	v(@m.xctatop.xmmpr.msky130_fd_pr__pfet_01v8_lvt[vds])	voltage
	93	v(@m.xctatop.xmmpr.msky130_fd_pr__pfet_01v8_lvt[vdsat])	voltage
	94	v(@m.xctatop.xmtriode_rload.msky130_fd_pr__pfet_01v8_lvt[vds])	voltage
	95	v(@m.xctatop.xmtriode_rload.msky130_fd_pr__pfet_01v8_lvt[vdsat])	voltage
	96	v(@m.xctatop.xmtrioden.msky130_fd_pr__nfet_01v8_lvt[vds])	voltage
	97	v(@m.xctatop.xmtrioden.msky130_fd_pr__nfet_01v8_lvt[vdsat])	voltage
	98	v(@m.xctatop.xmtriodep.msky130_fd_pr__pfet_01v8_lvt[vds])	voltage
	99	v(@m.xctatop.xmtriodep.msky130_fd_pr__pfet_01v8_lvt[vdsat])	voltage
	100	v(@m.xm1.msky130_fd_pr__nfet_01v8_lvt[vds])	voltage
	101	v(@m.xm1.msky130_fd_pr__nfet_01v8_lvt[vdsat])	voltage
	102	v(@m.xm3.msky130_fd_pr__nfet_01v8_lvt[vds])	voltage
	103	v(@m.xm3.msky130_fd_pr__nfet_01v8_lvt[vdsat])	voltage
	104	v(@m.xm8.msky130_fd_pr__pfet_01v8[vds])	voltage
	105	v(@m.xm8.msky130_fd_pr__pfet_01v8[vdsat])	voltage
	106	v(@m.xmcpdiff1.msky130_fd_pr__pfet_01v8_lvt[vds])	voltage
	107	v(@m.xmcpdiff1.msky130_fd_pr__pfet_01v8_lvt[vdsat])	voltage
	108	v(@m.xmcurr_ctat.msky130_fd_pr__pfet_01v8_lvt[vds])	voltage
	109	v(@m.xmcurr_ctat.msky130_fd_pr__pfet_01v8_lvt[vdsat])	voltage
	110	v(@m.xmcurr_ptat.msky130_fd_pr__pfet_01v8_lvt[vds])	voltage
	111	v(@m.xmcurr_ptat.msky130_fd_pr__pfet_01v8_lvt[vdsat])	voltage
	112	v(@m.xmdecap_ctat.msky130_fd_pr__pfet_01v8_lvt[vds])	voltage
	113	v(@m.xmdecap_ctat.msky130_fd_pr__pfet_01v8_lvt[vdsat])	voltage
	114	v(@m.xmdecap_ptat.msky130_fd_pr__pfet_01v8_lvt[vds])	voltage
	115	v(@m.xmdecap_ptat.msky130_fd_pr__pfet_01v8_lvt[vdsat])	voltage
	116	v(@m.xptatop.xmcas_rload.msky130_fd_pr__pfet_01v8_lvt[vds])	voltage
	117	v(@m.xptatop.xmcas_rload.msky130_fd_pr__pfet_01v8_lvt[vdsat])	voltage
	118	v(@m.xptatop.xmcasba.msky130_fd_pr__nfet_01v8_lvt[vds])	voltage
	119	v(@m.xptatop.xmcasba.msky130_fd_pr__nfet_01v8_lvt[vdsat])	voltage
	120	v(@m.xptatop.xmcasn.msky130_fd_pr__nfet_01v8_lvt[vds])	voltage
	121	v(@m.xptatop.xmcasn.msky130_fd_pr__nfet_01v8_lvt[vdsat])	voltage
	122	v(@m.xptatop.xmcasp.msky130_fd_pr__nfet_01v8_lvt[vds])	voltage
	123	v(@m.xptatop.xmcasp.msky130_fd_pr__nfet_01v8_lvt[vdsat])	voltage
	124	v(@m.xptatop.xmcpa.msky130_fd_pr__pfet_01v8_lvt[vds])	voltage
	125	v(@m.xptatop.xmcpa.msky130_fd_pr__pfet_01v8_lvt[vdsat])	voltage
	126	v(@m.xptatop.xmcpdiff.msky130_fd_pr__pfet_01v8_lvt[vds])	voltage
	127	v(@m.xptatop.xmcpdiff.msky130_fd_pr__pfet_01v8_lvt[vdsat])	voltage
	128	v(@m.xptatop.xmcpdiff1.msky130_fd_pr__pfet_01v8_lvt[vds])	voltage
	129	v(@m.xptatop.xmcpdiff1.msky130_fd_pr__pfet_01v8_lvt[vdsat])	voltage
	130	v(@m.xptatop.xmdiffn.msky130_fd_pr__pfet_01v8_lvt[vds])	voltage
	131	v(@m.xptatop.xmdiffn.msky130_fd_pr__pfet_01v8_lvt[vdsat])	voltage
	132	v(@m.xptatop.xmdiffp.msky130_fd_pr__pfet_01v8_lvt[vds])	voltage
	133	v(@m.xptatop.xmdiffp.msky130_fd_pr__pfet_01v8_lvt[vdsat])	voltage
	134	v(@m.xptatop.xmload_mn.msky130_fd_pr__pfet_01v8_lvt[vds])	voltage
	135	v(@m.xptatop.xmload_mn.msky130_fd_pr__pfet_01v8_lvt[vdsat])	voltage
	136	v(@m.xptatop.xmload_mp.msky130_fd_pr__pfet_01v8_lvt[vds])	voltage
	137	v(@m.xptatop.xmload_mp.msky130_fd_pr__pfet_01v8_lvt[vdsat])	voltage
	138	v(@m.xptatop.xmloadcn.msky130_fd_pr__pfet_01v8_lvt[vds])	voltage
	139	v(@m.xptatop.xmloadcn.msky130_fd_pr__pfet_01v8_lvt[vdsat])	voltage
	140	v(@m.xptatop.xmloadcp.msky130_fd_pr__pfet_01v8_lvt[vds])	voltage
	141	v(@m.xptatop.xmloadcp.msky130_fd_pr__pfet_01v8_lvt[vdsat])	voltage
	142	v(@m.xptatop.xmmfn.msky130_fd_pr__nfet_01v8_lvt[vds])	voltage
	143	v(@m.xptatop.xmmfn.msky130_fd_pr__nfet_01v8_lvt[vdsat])	voltage
	144	v(@m.xptatop.xmmfp.msky130_fd_pr__nfet_01v8_lvt[vds])	voltage
	145	v(@m.xptatop.xmmfp.msky130_fd_pr__nfet_01v8_lvt[vdsat])	voltage
	146	v(@m.xptatop.xmmna.msky130_fd_pr__nfet_01v8_lvt[vds])	voltage
	147	v(@m.xptatop.xmmna.msky130_fd_pr__nfet_01v8_lvt[vdsat])	voltage
	148	v(@m.xptatop.xmmnb.msky130_fd_pr__nfet_01v8_lvt[vds])	voltage
	149	v(@m.xptatop.xmmnb.msky130_fd_pr__nfet_01v8_lvt[vdsat])	voltage
	150	v(@m.xptatop.xmmnc.msky130_fd_pr__nfet_01v8_lvt[vds])	voltage
	151	v(@m.xptatop.xmmnc.msky130_fd_pr__nfet_01v8_lvt[vdsat])	voltage
	152	v(@m.xptatop.xmmnr.msky130_fd_pr__nfet_01v8_lvt[vds])	voltage
	153	v(@m.xptatop.xmmnr.msky130_fd_pr__nfet_01v8_lvt[vdsat])	voltage
	154	v(@m.xptatop.xmmpa.msky130_fd_pr__pfet_01v8_lvt[vds])	voltage
	155	v(@m.xptatop.xmmpa.msky130_fd_pr__pfet_01v8_lvt[vdsat])	voltage
	156	v(@m.xptatop.xmmpdiff.msky130_fd_pr__pfet_01v8_lvt[vds])	voltage
	157	v(@m.xptatop.xmmpdiff.msky130_fd_pr__pfet_01v8_lvt[vdsat])	voltage
	158	v(@m.xptatop.xmmpr.msky130_fd_pr__pfet_01v8_lvt[vds])	voltage
	159	v(@m.xptatop.xmmpr.msky130_fd_pr__pfet_01v8_lvt[vdsat])	voltage
	160	v(@m.xptatop.xmtriode_rload.msky130_fd_pr__pfet_01v8_lvt[vds])	voltage
	161	v(@m.xptatop.xmtriode_rload.msky130_fd_pr__pfet_01v8_lvt[vdsat])	voltage
	162	v(@m.xptatop.xmtrioden.msky130_fd_pr__nfet_01v8_lvt[vds])	voltage
	163	v(@m.xptatop.xmtrioden.msky130_fd_pr__nfet_01v8_lvt[vdsat])	voltage
	164	v(@m.xptatop.xmtriodep.msky130_fd_pr__pfet_01v8_lvt[vds])	voltage
	165	v(@m.xptatop.xmtriodep.msky130_fd_pr__pfet_01v8_lvt[vdsat])	voltage
	166	v(@m.xq1.msky130_fd_pr__pnp_05v5_w3p40l3p40[vds])	voltage dims=0
	167	v(@m.xq1.msky130_fd_pr__pnp_05v5_w3p40l3p40[vdsat])	voltage dims=0
	168	v(@m.xq2.msky130_fd_pr__pnp_05v5_w3p40l3p40[vds])	voltage dims=0
	169	v(@m.xq2.msky130_fd_pr__pnp_05v5_w3p40l3p40[vdsat])	voltage dims=0
	170	v(bmr_biasv)	voltage
	171	v(cas)	voltage
	172	v(ctat_int)	voltage
	173	v(m.x5.xmcas.msky130_fd_pr__pfet_01v8_lvt#body)	voltage
	174	v(m.x5.xmcas.msky130_fd_pr__pfet_01v8_lvt#dbody)	voltage
	175	v(m.x5.xmcas.msky130_fd_pr__pfet_01v8_lvt#sbody)	voltage
	176	v(m.x5.xmcurr.msky130_fd_pr__pfet_01v8#body)	voltage
	177	v(m.x5.xmcurr.msky130_fd_pr__pfet_01v8#dbody)	voltage
	178	v(m.x5.xmcurr.msky130_fd_pr__pfet_01v8#sbody)	voltage
	179	v(m.x6.xmcas.msky130_fd_pr__pfet_01v8_lvt#body)	voltage
	180	v(m.x6.xmcas.msky130_fd_pr__pfet_01v8_lvt#dbody)	voltage
	181	v(m.x6.xmcas.msky130_fd_pr__pfet_01v8_lvt#sbody)	voltage
	182	v(m.x6.xmcurr.msky130_fd_pr__pfet_01v8#body)	voltage
	183	v(m.x6.xmcurr.msky130_fd_pr__pfet_01v8#dbody)	voltage
	184	v(m.x6.xmcurr.msky130_fd_pr__pfet_01v8#sbody)	voltage
	185	v(m.x7.xmcas.msky130_fd_pr__pfet_01v8_lvt#body)	voltage
	186	v(m.x7.xmcas.msky130_fd_pr__pfet_01v8_lvt#dbody)	voltage
	187	v(m.x7.xmcas.msky130_fd_pr__pfet_01v8_lvt#sbody)	voltage
	188	v(m.x7.xmcurr.msky130_fd_pr__pfet_01v8#body)	voltage
	189	v(m.x7.xmcurr.msky130_fd_pr__pfet_01v8#dbody)	voltage
	190	v(m.x7.xmcurr.msky130_fd_pr__pfet_01v8#sbody)	voltage
	191	v(m.x10.xmcas.msky130_fd_pr__pfet_01v8_lvt#body)	voltage
	192	v(m.x10.xmcas.msky130_fd_pr__pfet_01v8_lvt#dbody)	voltage
	193	v(m.x10.xmcas.msky130_fd_pr__pfet_01v8_lvt#sbody)	voltage
	194	v(m.x10.xmcurr.msky130_fd_pr__pfet_01v8#body)	voltage
	195	v(m.x10.xmcurr.msky130_fd_pr__pfet_01v8#dbody)	voltage
	196	v(m.x10.xmcurr.msky130_fd_pr__pfet_01v8#sbody)	voltage
	197	v(m.x11.xmcas.msky130_fd_pr__pfet_01v8_lvt#body)	voltage
	198	v(m.x11.xmcas.msky130_fd_pr__pfet_01v8_lvt#dbody)	voltage
	199	v(m.x11.xmcas.msky130_fd_pr__pfet_01v8_lvt#sbody)	voltage
	200	v(m.x11.xmcurr.msky130_fd_pr__pfet_01v8#body)	voltage
	201	v(m.x11.xmcurr.msky130_fd_pr__pfet_01v8#dbody)	voltage
	202	v(m.x11.xmcurr.msky130_fd_pr__pfet_01v8#sbody)	voltage
	203	v(m.xbmr.xmcurr_bias.msky130_fd_pr__pfet_01v8_lvt#body)	voltage
	204	v(m.xbmr.xmcurr_bias.msky130_fd_pr__pfet_01v8_lvt#dbody)	voltage
	205	v(m.xbmr.xmcurr_bias.msky130_fd_pr__pfet_01v8_lvt#sbody)	voltage
	206	v(m.xbmr.xmcurr_p1.msky130_fd_pr__pfet_01v8_lvt#body)	voltage
	207	v(m.xbmr.xmcurr_p1.msky130_fd_pr__pfet_01v8_lvt#dbody)	voltage
	208	v(m.xbmr.xmcurr_p1.msky130_fd_pr__pfet_01v8_lvt#sbody)	voltage
	209	v(m.xbmr.xmcurr_p2.msky130_fd_pr__pfet_01v8_lvt#body)	voltage
	210	v(m.xbmr.xmcurr_p2.msky130_fd_pr__pfet_01v8_lvt#dbody)	voltage
	211	v(m.xbmr.xmcurr_p2.msky130_fd_pr__pfet_01v8_lvt#sbody)	voltage
	212	v(m.xbmr.xmdiff_n1.msky130_fd_pr__nfet_01v8#body)	voltage
	213	v(m.xbmr.xmdiff_n1.msky130_fd_pr__nfet_01v8#dbody)	voltage
	214	v(m.xbmr.xmdiff_n1.msky130_fd_pr__nfet_01v8#sbody)	voltage
	215	v(m.xbmr.xmdiff_n2.msky130_fd_pr__nfet_01v8#body)	voltage
	216	v(m.xbmr.xmdiff_n2.msky130_fd_pr__nfet_01v8#dbody)	voltage
	217	v(m.xbmr.xmdiff_n2.msky130_fd_pr__nfet_01v8#sbody)	voltage
	218	v(m.xbmr.xmdiff_n3.msky130_fd_pr__nfet_01v8#body)	voltage
	219	v(m.xbmr.xmdiff_n3.msky130_fd_pr__nfet_01v8#dbody)	voltage
	220	v(m.xbmr.xmdiff_n3.msky130_fd_pr__nfet_01v8#sbody)	voltage
	221	v(m.xbmr.xmdum1.msky130_fd_pr__nfet_01v8#body)	voltage
	222	v(m.xbmr.xmdum1.msky130_fd_pr__nfet_01v8#dbody)	voltage
	223	v(m.xbmr.xmdum1.msky130_fd_pr__nfet_01v8#sbody)	voltage
	224	v(m.xbmr.xmdum2.msky130_fd_pr__nfet_01v8#body)	voltage
	225	v(m.xbmr.xmdum2.msky130_fd_pr__nfet_01v8#dbody)	voltage
	226	v(m.xbmr.xmdum2.msky130_fd_pr__nfet_01v8#sbody)	voltage
	227	v(m.xbmr.xmsw_en1.msky130_fd_pr__pfet_01v8_lvt#body)	voltage
	228	v(m.xbmr.xmsw_en1.msky130_fd_pr__pfet_01v8_lvt#dbody)	voltage
	229	v(m.xbmr.xmsw_en1.msky130_fd_pr__pfet_01v8_lvt#sbody)	voltage
	230	v(m.xbmr.xmsw_en2.msky130_fd_pr__pfet_01v8_lvt#body)	voltage
	231	v(m.xbmr.xmsw_en2.msky130_fd_pr__pfet_01v8_lvt#dbody)	voltage
	232	v(m.xbmr.xmsw_en2.msky130_fd_pr__pfet_01v8_lvt#sbody)	voltage
	233	v(m.xbmr.xmsw_start.msky130_fd_pr__nfet_01v8#body)	voltage
	234	v(m.xbmr.xmsw_start.msky130_fd_pr__nfet_01v8#dbody)	voltage
	235	v(m.xbmr.xmsw_start.msky130_fd_pr__nfet_01v8#sbody)	voltage
	236	v(m.xctatop.xmcas_rload.msky130_fd_pr__pfet_01v8_lvt#body)	voltage
	237	v(m.xctatop.xmcas_rload.msky130_fd_pr__pfet_01v8_lvt#dbody)	voltage
	238	v(m.xctatop.xmcas_rload.msky130_fd_pr__pfet_01v8_lvt#sbody)	voltage
	239	v(m.xctatop.xmcasba.msky130_fd_pr__nfet_01v8_lvt#body)	voltage
	240	v(m.xctatop.xmcasba.msky130_fd_pr__nfet_01v8_lvt#dbody)	voltage
	241	v(m.xctatop.xmcasba.msky130_fd_pr__nfet_01v8_lvt#sbody)	voltage
	242	v(m.xctatop.xmcasn.msky130_fd_pr__nfet_01v8_lvt#body)	voltage
	243	v(m.xctatop.xmcasn.msky130_fd_pr__nfet_01v8_lvt#dbody)	voltage
	244	v(m.xctatop.xmcasn.msky130_fd_pr__nfet_01v8_lvt#sbody)	voltage
	245	v(m.xctatop.xmcasp.msky130_fd_pr__nfet_01v8_lvt#body)	voltage
	246	v(m.xctatop.xmcasp.msky130_fd_pr__nfet_01v8_lvt#dbody)	voltage
	247	v(m.xctatop.xmcasp.msky130_fd_pr__nfet_01v8_lvt#sbody)	voltage
	248	v(m.xctatop.xmcpa.msky130_fd_pr__pfet_01v8_lvt#body)	voltage
	249	v(m.xctatop.xmcpa.msky130_fd_pr__pfet_01v8_lvt#dbody)	voltage
	250	v(m.xctatop.xmcpa.msky130_fd_pr__pfet_01v8_lvt#sbody)	voltage
	251	v(m.xctatop.xmcpdiff.msky130_fd_pr__pfet_01v8_lvt#body)	voltage
	252	v(m.xctatop.xmcpdiff.msky130_fd_pr__pfet_01v8_lvt#dbody)	voltage
	253	v(m.xctatop.xmcpdiff.msky130_fd_pr__pfet_01v8_lvt#sbody)	voltage
	254	v(m.xctatop.xmcpdiff1.msky130_fd_pr__pfet_01v8_lvt#body)	voltage
	255	v(m.xctatop.xmcpdiff1.msky130_fd_pr__pfet_01v8_lvt#dbody)	voltage
	256	v(m.xctatop.xmcpdiff1.msky130_fd_pr__pfet_01v8_lvt#sbody)	voltage
	257	v(m.xctatop.xmdiffn.msky130_fd_pr__pfet_01v8_lvt#body)	voltage
	258	v(m.xctatop.xmdiffn.msky130_fd_pr__pfet_01v8_lvt#dbody)	voltage
	259	v(m.xctatop.xmdiffn.msky130_fd_pr__pfet_01v8_lvt#sbody)	voltage
	260	v(m.xctatop.xmdiffp.msky130_fd_pr__pfet_01v8_lvt#body)	voltage
	261	v(m.xctatop.xmdiffp.msky130_fd_pr__pfet_01v8_lvt#dbody)	voltage
	262	v(m.xctatop.xmdiffp.msky130_fd_pr__pfet_01v8_lvt#sbody)	voltage
	263	v(m.xctatop.xmload_mn.msky130_fd_pr__pfet_01v8_lvt#body)	voltage
	264	v(m.xctatop.xmload_mn.msky130_fd_pr__pfet_01v8_lvt#dbody)	voltage
	265	v(m.xctatop.xmload_mn.msky130_fd_pr__pfet_01v8_lvt#sbody)	voltage
	266	v(m.xctatop.xmload_mp.msky130_fd_pr__pfet_01v8_lvt#body)	voltage
	267	v(m.xctatop.xmload_mp.msky130_fd_pr__pfet_01v8_lvt#dbody)	voltage
	268	v(m.xctatop.xmload_mp.msky130_fd_pr__pfet_01v8_lvt#sbody)	voltage
	269	v(m.xctatop.xmloadcn.msky130_fd_pr__pfet_01v8_lvt#body)	voltage
	270	v(m.xctatop.xmloadcn.msky130_fd_pr__pfet_01v8_lvt#dbody)	voltage
	271	v(m.xctatop.xmloadcn.msky130_fd_pr__pfet_01v8_lvt#sbody)	voltage
	272	v(m.xctatop.xmloadcp.msky130_fd_pr__pfet_01v8_lvt#body)	voltage
	273	v(m.xctatop.xmloadcp.msky130_fd_pr__pfet_01v8_lvt#dbody)	voltage
	274	v(m.xctatop.xmloadcp.msky130_fd_pr__pfet_01v8_lvt#sbody)	voltage
	275	v(m.xctatop.xmmfn.msky130_fd_pr__nfet_01v8_lvt#body)	voltage
	276	v(m.xctatop.xmmfn.msky130_fd_pr__nfet_01v8_lvt#dbody)	voltage
	277	v(m.xctatop.xmmfn.msky130_fd_pr__nfet_01v8_lvt#sbody)	voltage
	278	v(m.xctatop.xmmfp.msky130_fd_pr__nfet_01v8_lvt#body)	voltage
	279	v(m.xctatop.xmmfp.msky130_fd_pr__nfet_01v8_lvt#dbody)	voltage
	280	v(m.xctatop.xmmfp.msky130_fd_pr__nfet_01v8_lvt#sbody)	voltage
	281	v(m.xctatop.xmmna.msky130_fd_pr__nfet_01v8_lvt#body)	voltage
	282	v(m.xctatop.xmmna.msky130_fd_pr__nfet_01v8_lvt#dbody)	voltage
	283	v(m.xctatop.xmmna.msky130_fd_pr__nfet_01v8_lvt#sbody)	voltage
	284	v(m.xctatop.xmmnb.msky130_fd_pr__nfet_01v8_lvt#body)	voltage
	285	v(m.xctatop.xmmnb.msky130_fd_pr__nfet_01v8_lvt#dbody)	voltage
	286	v(m.xctatop.xmmnb.msky130_fd_pr__nfet_01v8_lvt#sbody)	voltage
	287	v(m.xctatop.xmmnc.msky130_fd_pr__nfet_01v8_lvt#body)	voltage
	288	v(m.xctatop.xmmnc.msky130_fd_pr__nfet_01v8_lvt#dbody)	voltage
	289	v(m.xctatop.xmmnc.msky130_fd_pr__nfet_01v8_lvt#sbody)	voltage
	290	v(m.xctatop.xmmnr.msky130_fd_pr__nfet_01v8_lvt#body)	voltage
	291	v(m.xctatop.xmmnr.msky130_fd_pr__nfet_01v8_lvt#dbody)	voltage
	292	v(m.xctatop.xmmnr.msky130_fd_pr__nfet_01v8_lvt#sbody)	voltage
	293	v(m.xctatop.xmmpa.msky130_fd_pr__pfet_01v8_lvt#body)	voltage
	294	v(m.xctatop.xmmpa.msky130_fd_pr__pfet_01v8_lvt#dbody)	voltage
	295	v(m.xctatop.xmmpa.msky130_fd_pr__pfet_01v8_lvt#sbody)	voltage
	296	v(m.xctatop.xmmpdiff.msky130_fd_pr__pfet_01v8_lvt#body)	voltage
	297	v(m.xctatop.xmmpdiff.msky130_fd_pr__pfet_01v8_lvt#dbody)	voltage
	298	v(m.xctatop.xmmpdiff.msky130_fd_pr__pfet_01v8_lvt#sbody)	voltage
	299	v(m.xctatop.xmmpr.msky130_fd_pr__pfet_01v8_lvt#body)	voltage
	300	v(m.xctatop.xmmpr.msky130_fd_pr__pfet_01v8_lvt#dbody)	voltage
	301	v(m.xctatop.xmmpr.msky130_fd_pr__pfet_01v8_lvt#sbody)	voltage
	302	v(m.xctatop.xmtriode_rload.msky130_fd_pr__pfet_01v8_lvt#body)	voltage
	303	v(m.xctatop.xmtriode_rload.msky130_fd_pr__pfet_01v8_lvt#dbody)	voltage
	304	v(m.xctatop.xmtriode_rload.msky130_fd_pr__pfet_01v8_lvt#sbody)	voltage
	305	v(m.xctatop.xmtrioden.msky130_fd_pr__nfet_01v8_lvt#body)	voltage
	306	v(m.xctatop.xmtrioden.msky130_fd_pr__nfet_01v8_lvt#dbody)	voltage
	307	v(m.xctatop.xmtrioden.msky130_fd_pr__nfet_01v8_lvt#sbody)	voltage
	308	v(m.xctatop.xmtriodep.msky130_fd_pr__pfet_01v8_lvt#body)	voltage
	309	v(m.xctatop.xmtriodep.msky130_fd_pr__pfet_01v8_lvt#dbody)	voltage
	310	v(m.xctatop.xmtriodep.msky130_fd_pr__pfet_01v8_lvt#sbody)	voltage
	311	v(m.xm1.msky130_fd_pr__nfet_01v8_lvt#body)	voltage
	312	v(m.xm1.msky130_fd_pr__nfet_01v8_lvt#dbody)	voltage
	313	v(m.xm1.msky130_fd_pr__nfet_01v8_lvt#sbody)	voltage
	314	v(m.xm3.msky130_fd_pr__nfet_01v8_lvt#body)	voltage
	315	v(m.xm3.msky130_fd_pr__nfet_01v8_lvt#dbody)	voltage
	316	v(m.xm3.msky130_fd_pr__nfet_01v8_lvt#sbody)	voltage
	317	v(m.xm8.msky130_fd_pr__pfet_01v8#body)	voltage
	318	v(m.xm8.msky130_fd_pr__pfet_01v8#dbody)	voltage
	319	v(m.xm8.msky130_fd_pr__pfet_01v8#sbody)	voltage
	320	v(m.xmcpdiff1.msky130_fd_pr__pfet_01v8_lvt#body)	voltage
	321	v(m.xmcpdiff1.msky130_fd_pr__pfet_01v8_lvt#dbody)	voltage
	322	v(m.xmcpdiff1.msky130_fd_pr__pfet_01v8_lvt#sbody)	voltage
	323	v(m.xmcurr_ctat.msky130_fd_pr__pfet_01v8_lvt#body)	voltage
	324	v(m.xmcurr_ctat.msky130_fd_pr__pfet_01v8_lvt#dbody)	voltage
	325	v(m.xmcurr_ctat.msky130_fd_pr__pfet_01v8_lvt#sbody)	voltage
	326	v(m.xmcurr_ptat.msky130_fd_pr__pfet_01v8_lvt#body)	voltage
	327	v(m.xmcurr_ptat.msky130_fd_pr__pfet_01v8_lvt#dbody)	voltage
	328	v(m.xmcurr_ptat.msky130_fd_pr__pfet_01v8_lvt#sbody)	voltage
	329	v(m.xmdecap_ctat.msky130_fd_pr__pfet_01v8_lvt#body)	voltage
	330	v(m.xmdecap_ctat.msky130_fd_pr__pfet_01v8_lvt#dbody)	voltage
	331	v(m.xmdecap_ctat.msky130_fd_pr__pfet_01v8_lvt#sbody)	voltage
	332	v(m.xmdecap_ptat.msky130_fd_pr__pfet_01v8_lvt#body)	voltage
	333	v(m.xmdecap_ptat.msky130_fd_pr__pfet_01v8_lvt#dbody)	voltage
	334	v(m.xmdecap_ptat.msky130_fd_pr__pfet_01v8_lvt#sbody)	voltage
	335	v(m.xptatop.xmcas_rload.msky130_fd_pr__pfet_01v8_lvt#body)	voltage
	336	v(m.xptatop.xmcas_rload.msky130_fd_pr__pfet_01v8_lvt#dbody)	voltage
	337	v(m.xptatop.xmcas_rload.msky130_fd_pr__pfet_01v8_lvt#sbody)	voltage
	338	v(m.xptatop.xmcasba.msky130_fd_pr__nfet_01v8_lvt#body)	voltage
	339	v(m.xptatop.xmcasba.msky130_fd_pr__nfet_01v8_lvt#dbody)	voltage
	340	v(m.xptatop.xmcasba.msky130_fd_pr__nfet_01v8_lvt#sbody)	voltage
	341	v(m.xptatop.xmcasn.msky130_fd_pr__nfet_01v8_lvt#body)	voltage
	342	v(m.xptatop.xmcasn.msky130_fd_pr__nfet_01v8_lvt#dbody)	voltage
	343	v(m.xptatop.xmcasn.msky130_fd_pr__nfet_01v8_lvt#sbody)	voltage
	344	v(m.xptatop.xmcasp.msky130_fd_pr__nfet_01v8_lvt#body)	voltage
	345	v(m.xptatop.xmcasp.msky130_fd_pr__nfet_01v8_lvt#dbody)	voltage
	346	v(m.xptatop.xmcasp.msky130_fd_pr__nfet_01v8_lvt#sbody)	voltage
	347	v(m.xptatop.xmcpa.msky130_fd_pr__pfet_01v8_lvt#body)	voltage
	348	v(m.xptatop.xmcpa.msky130_fd_pr__pfet_01v8_lvt#dbody)	voltage
	349	v(m.xptatop.xmcpa.msky130_fd_pr__pfet_01v8_lvt#sbody)	voltage
	350	v(m.xptatop.xmcpdiff.msky130_fd_pr__pfet_01v8_lvt#body)	voltage
	351	v(m.xptatop.xmcpdiff.msky130_fd_pr__pfet_01v8_lvt#dbody)	voltage
	352	v(m.xptatop.xmcpdiff.msky130_fd_pr__pfet_01v8_lvt#sbody)	voltage
	353	v(m.xptatop.xmcpdiff1.msky130_fd_pr__pfet_01v8_lvt#body)	voltage
	354	v(m.xptatop.xmcpdiff1.msky130_fd_pr__pfet_01v8_lvt#dbody)	voltage
	355	v(m.xptatop.xmcpdiff1.msky130_fd_pr__pfet_01v8_lvt#sbody)	voltage
	356	v(m.xptatop.xmdiffn.msky130_fd_pr__pfet_01v8_lvt#body)	voltage
	357	v(m.xptatop.xmdiffn.msky130_fd_pr__pfet_01v8_lvt#dbody)	voltage
	358	v(m.xptatop.xmdiffn.msky130_fd_pr__pfet_01v8_lvt#sbody)	voltage
	359	v(m.xptatop.xmdiffp.msky130_fd_pr__pfet_01v8_lvt#body)	voltage
	360	v(m.xptatop.xmdiffp.msky130_fd_pr__pfet_01v8_lvt#dbody)	voltage
	361	v(m.xptatop.xmdiffp.msky130_fd_pr__pfet_01v8_lvt#sbody)	voltage
	362	v(m.xptatop.xmload_mn.msky130_fd_pr__pfet_01v8_lvt#body)	voltage
	363	v(m.xptatop.xmload_mn.msky130_fd_pr__pfet_01v8_lvt#dbody)	voltage
	364	v(m.xptatop.xmload_mn.msky130_fd_pr__pfet_01v8_lvt#sbody)	voltage
	365	v(m.xptatop.xmload_mp.msky130_fd_pr__pfet_01v8_lvt#body)	voltage
	366	v(m.xptatop.xmload_mp.msky130_fd_pr__pfet_01v8_lvt#dbody)	voltage
	367	v(m.xptatop.xmload_mp.msky130_fd_pr__pfet_01v8_lvt#sbody)	voltage
	368	v(m.xptatop.xmloadcn.msky130_fd_pr__pfet_01v8_lvt#body)	voltage
	369	v(m.xptatop.xmloadcn.msky130_fd_pr__pfet_01v8_lvt#dbody)	voltage
	370	v(m.xptatop.xmloadcn.msky130_fd_pr__pfet_01v8_lvt#sbody)	voltage
	371	v(m.xptatop.xmloadcp.msky130_fd_pr__pfet_01v8_lvt#body)	voltage
	372	v(m.xptatop.xmloadcp.msky130_fd_pr__pfet_01v8_lvt#dbody)	voltage
	373	v(m.xptatop.xmloadcp.msky130_fd_pr__pfet_01v8_lvt#sbody)	voltage
	374	v(m.xptatop.xmmfn.msky130_fd_pr__nfet_01v8_lvt#body)	voltage
	375	v(m.xptatop.xmmfn.msky130_fd_pr__nfet_01v8_lvt#dbody)	voltage
	376	v(m.xptatop.xmmfn.msky130_fd_pr__nfet_01v8_lvt#sbody)	voltage
	377	v(m.xptatop.xmmfp.msky130_fd_pr__nfet_01v8_lvt#body)	voltage
	378	v(m.xptatop.xmmfp.msky130_fd_pr__nfet_01v8_lvt#dbody)	voltage
	379	v(m.xptatop.xmmfp.msky130_fd_pr__nfet_01v8_lvt#sbody)	voltage
	380	v(m.xptatop.xmmna.msky130_fd_pr__nfet_01v8_lvt#body)	voltage
	381	v(m.xptatop.xmmna.msky130_fd_pr__nfet_01v8_lvt#dbody)	voltage
	382	v(m.xptatop.xmmna.msky130_fd_pr__nfet_01v8_lvt#sbody)	voltage
	383	v(m.xptatop.xmmnb.msky130_fd_pr__nfet_01v8_lvt#body)	voltage
	384	v(m.xptatop.xmmnb.msky130_fd_pr__nfet_01v8_lvt#dbody)	voltage
	385	v(m.xptatop.xmmnb.msky130_fd_pr__nfet_01v8_lvt#sbody)	voltage
	386	v(m.xptatop.xmmnc.msky130_fd_pr__nfet_01v8_lvt#body)	voltage
	387	v(m.xptatop.xmmnc.msky130_fd_pr__nfet_01v8_lvt#dbody)	voltage
	388	v(m.xptatop.xmmnc.msky130_fd_pr__nfet_01v8_lvt#sbody)	voltage
	389	v(m.xptatop.xmmnr.msky130_fd_pr__nfet_01v8_lvt#body)	voltage
	390	v(m.xptatop.xmmnr.msky130_fd_pr__nfet_01v8_lvt#dbody)	voltage
	391	v(m.xptatop.xmmnr.msky130_fd_pr__nfet_01v8_lvt#sbody)	voltage
	392	v(m.xptatop.xmmpa.msky130_fd_pr__pfet_01v8_lvt#body)	voltage
	393	v(m.xptatop.xmmpa.msky130_fd_pr__pfet_01v8_lvt#dbody)	voltage
	394	v(m.xptatop.xmmpa.msky130_fd_pr__pfet_01v8_lvt#sbody)	voltage
	395	v(m.xptatop.xmmpdiff.msky130_fd_pr__pfet_01v8_lvt#body)	voltage
	396	v(m.xptatop.xmmpdiff.msky130_fd_pr__pfet_01v8_lvt#dbody)	voltage
	397	v(m.xptatop.xmmpdiff.msky130_fd_pr__pfet_01v8_lvt#sbody)	voltage
	398	v(m.xptatop.xmmpr.msky130_fd_pr__pfet_01v8_lvt#body)	voltage
	399	v(m.xptatop.xmmpr.msky130_fd_pr__pfet_01v8_lvt#dbody)	voltage
	400	v(m.xptatop.xmmpr.msky130_fd_pr__pfet_01v8_lvt#sbody)	voltage
	401	v(m.xptatop.xmtriode_rload.msky130_fd_pr__pfet_01v8_lvt#body)	voltage
	402	v(m.xptatop.xmtriode_rload.msky130_fd_pr__pfet_01v8_lvt#dbody)	voltage
	403	v(m.xptatop.xmtriode_rload.msky130_fd_pr__pfet_01v8_lvt#sbody)	voltage
	404	v(m.xptatop.xmtrioden.msky130_fd_pr__nfet_01v8_lvt#body)	voltage
	405	v(m.xptatop.xmtrioden.msky130_fd_pr__nfet_01v8_lvt#dbody)	voltage
	406	v(m.xptatop.xmtrioden.msky130_fd_pr__nfet_01v8_lvt#sbody)	voltage
	407	v(m.xptatop.xmtriodep.msky130_fd_pr__pfet_01v8_lvt#body)	voltage
	408	v(m.xptatop.xmtriodep.msky130_fd_pr__pfet_01v8_lvt#dbody)	voltage
	409	v(m.xptatop.xmtriodep.msky130_fd_pr__pfet_01v8_lvt#sbody)	voltage
	410	v(net1)	voltage
	411	v(net2)	voltage
	412	v(net3)	voltage
	413	v(net4)	voltage
	414	v(net5)	voltage
	415	v(net6)	voltage
	416	v(net7)	voltage
	417	v(net8)	voltage
	418	v(net9)	voltage
	419	v(ptat_int)	voltage
	420	v(q.xq1.qsky130_fd_pr__pnp_05v5_w3p40l3p40#collcx)	voltage
	421	v(q.xq2.qsky130_fd_pr__pnp_05v5_w3p40l3p40#collcx)	voltage
	422	v(q1)	voltage
	423	v(q8)	voltage
	424	v(sky130_fd_pr__esd_nfet_05v0_nvt.pm3)	voltage
	425	i(v2)	current
	426	i(vdd)	current
	427	i(vmeasc)	current
	428	v(x5.net1)	voltage
	429	v(x6.net1)	voltage
	430	v(x7.net1)	voltage
	431	v(x10.net1)	voltage
	432	v(x11.net1)	voltage
	433	v(xbmr.net1)	voltage
	434	v(xbmr.net2)	voltage
	435	v(xbmr.net3)	voltage
	436	v(xbmr.xccomp.a)	voltage
	437	v(xbmr.xccomp.b1)	voltage
	438	v(xbmr.xcfilt.a)	voltage
	439	v(xbmr.xcfilt.b1)	voltage
	440	v(xbmr.xrbias.t1)	voltage
	441	v(xbmr.xrbias.t2)	voltage
	442	v(xctatop.net1)	voltage
	443	v(xctatop.net2)	voltage
	444	v(xctatop.net3)	voltage
	445	v(xctatop.net4)	voltage
	446	v(xctatop.net5)	voltage
	447	v(xctatop.net6)	voltage
	448	v(xctatop.net7)	voltage
	449	v(xctatop.net8)	voltage
	450	v(xctatop.net9)	voltage
	451	v(xctatop.net10)	voltage
	452	v(xctatop.net11)	voltage
	453	v(xctatop.net12)	voltage
	454	v(xctatop.net13)	voltage
	455	v(xctatop.net14)	voltage
	456	v(xctatop.net15)	voltage
	457	v(xptatop.net1)	voltage
	458	v(xptatop.net2)	voltage
	459	v(xptatop.net3)	voltage
	460	v(xptatop.net4)	voltage
	461	v(xptatop.net5)	voltage
	462	v(xptatop.net6)	voltage
	463	v(xptatop.net7)	voltage
	464	v(xptatop.net8)	voltage
	465	v(xptatop.net9)	voltage
	466	v(xptatop.net10)	voltage
	467	v(xptatop.net11)	voltage
	468	v(xptatop.net12)	voltage
	469	v(xptatop.net13)	voltage
	470	v(xptatop.net14)	voltage
	471	v(xptatop.net15)	voltage
Values:
 0	-4.000000000000000e+01
	0.000000000000000e+00
	4.489785278301358e-01
	3.471968673906842e-02
	9.482275740517330e-01
	3.090446168179796e-02
	4.489712669761962e-01
	3.471971870103142e-02
	9.482405811116226e-01
	3.090446168179796e-02
	8.268289585497647e-01
	5.591615392943249e-02
	5.714034969894273e-01
	1.994061743531363e-01
	5.066176153143128e-01
	3.472353587137230e-02
	9.497947378484652e-01
	3.090446168177877e-02
	8.831271860989015e-01
	5.517765682543706e-02
	5.732848372858781e-01
	1.994061743520936e-01
	0.000000000000000e+00
	0.000000000000000e+00
	0.000000000000000e+00
	0.000000000000000e+00
	1.968086505570870e+00
	1.079662020870662e+00
	1.347248933642576e+00
	3.735761930515513e-01
	1.079484275948337e+00
	3.735761935554733e-01
	6.327503289626267e-01
	4.715887664959166e-02
	8.563289092059546e-01
	3.584971192570417e-02
	1.191129189566631e-02