Title: **.subckt vco_2-4ghz_tb
Date: Sun Oct  4 03:13:25  2020
Plotname: Transient Analysis
Flags: real
No. Variables: 5
No. Points: 1026    
Variables:
	0	time	time
	1	v(ip)	voltage
	2	v(in)	voltage
	3	v(vctl)	voltage
	4	i(vdd)	current
Values:
0		0.000000000000000e+00
	0.000000000000000e+00
	0.000000000000000e+00
	0.000000000000000e+00
	0.000000000000000e+00
1		1.000000000000000e-13
	5.584778341732823e-02
	5.584778341732826e-02
	1.800000000000000e+00
	-6.451056818629723e-01
2		1.057671010611960e-13
	5.884416864335116e-02
	5.884416864335120e-02
	1.800000000000000e+00
	-2.605134718933804e-01
3		1.173013031835881e-13
	6.446821341785063e-02
	6.446821341785068e-02
	1.800000000000000e+00
	-2.465820749374185e-01
4		1.403697074283722e-13
	7.388857491146857e-02
	7.388857491146855e-02
	1.800000000000000e+00
	-2.124530929253619e-01
5		1.865065159179404e-13
	8.782874388990564e-02
	8.782874388990543e-02
	1.800000000000000e+00
	-1.623169384310600e-01
6		2.787801328970768e-13
	1.063823933001555e-01
	1.063823933001552e-01
	1.800000000000000e+00
	-1.009686008290037e-01
7		4.633273668553496e-13
	1.329742262909329e-01
	1.329742262909323e-01
	1.800000000000000e+00
	-5.902972848061155e-02
8		8.262155630200710e-13
	1.766594443967695e-01
	1.766594443967684e-01
	1.800000000000000e+00
	-3.888834967401125e-02
9		1.505769605101951e-12
	2.464451157385203e-01
	2.464451157385192e-01
	1.800000000000000e+00
	-2.932818544446008e-02
10		2.864877689265712e-12
	3.677666539116059e-01
	3.677666539116047e-01
	1.800000000000000e+00
	-2.172523358760791e-02
11		4.094483999179020e-12
	4.681414198912776e-01
	4.681414198912766e-01
	1.800000000000000e+00
	-1.603922918228803e-02
12		6.553696619005637e-12
	6.525344052532037e-01
	6.525344052532028e-01
	1.800000000000000e+00
	-6.902597535707562e-03
13		9.999999999999999e-12
	8.730019008733907e-01
	8.730019008733899e-01
	1.800000000000000e+00
	-5.810818746850069e-03
14		1.036053834580368e-11
	8.932100184569198e-01
	8.932100184569189e-01
	1.800000000000000e+00
	-4.926860975357070e-03
15		1.108161503741103e-11
	9.327888961207250e-01
	9.327888961207240e-01
	1.800000000000000e+00
	-4.661135957876450e-03
16		1.252376842062574e-11
	1.007017334635486e+00
	1.007017334635485e+00
	1.800000000000000e+00
	-4.433643085670656e-03
17		1.540807518705516e-11
	1.137569917815776e+00
	1.137569917815775e+00
	1.800000000000000e+00
	-4.019420362225548e-03
18		2.117668871991399e-11
	1.338375549270802e+00
	1.338375549270801e+00
	1.800000000000000e+00
	-3.634473046744243e-03
19		3.117668871991399e-11
	1.542843206302183e+00
	1.542843206302184e+00
	1.800000000000000e+00
	-3.312065496515267e-03
20		4.117668871991398e-11
	1.625721242548734e+00
	1.625721242548737e+00
	1.800000000000000e+00
	-3.318004704400327e-03
21		5.117668871991398e-11
	1.649992498282766e+00
	1.649992498282772e+00
	1.800000000000000e+00
	-3.323113319858280e-03
22		6.117668871991398e-11
	1.653662530769758e+00
	1.653662530769763e+00
	1.800000000000000e+00
	-3.384956546671526e-03
23		7.117668871991398e-11
	1.652024318572552e+00
	1.652024318572555e+00
	1.800000000000000e+00
	-3.373476203950413e-03
24		8.117668871991399e-11
	1.649879998422803e+00
	1.649879998422805e+00
	1.800000000000000e+00
	-3.413848334065914e-03
25		9.117668871991399e-11
	1.648236511608842e+00
	1.648236511608844e+00
	1.800000000000000e+00
	-3.391029985749361e-03
26		1.011766887199140e-10
	1.647202367069704e+00
	1.647202367069704e+00
	1.800000000000000e+00
	-3.422371838930267e-03
27		1.111766887199140e-10
	1.646566490223847e+00
	1.646566490223846e+00
	1.800000000000000e+00
	-3.396843053175545e-03
28		1.211766887199140e-10
	1.646216945191087e+00
	1.646216945191087e+00
	1.800000000000000e+00
	-3.424399781880003e-03
29		1.311766887199140e-10
	1.646007743942169e+00
	1.646007743942169e+00
	1.800000000000000e+00
	-3.399021682409598e-03
30		1.411766887199140e-10
	1.645904149464842e+00
	1.645904149464844e+00
	1.800000000000000e+00
	-3.424518355710320e-03
31		1.511766887199140e-10
	1.645837311013686e+00
	1.645837311013693e+00
	1.800000000000000e+00
	-3.400101784494815e-03
32		1.611766887199140e-10
	1.645810287121931e+00
	1.645810287121946e+00
	1.800000000000000e+00
	-3.424112231134112e-03
33		1.711766887199139e-10
	1.645787553681785e+00
	1.645787553681807e+00
	1.800000000000000e+00
	-3.400835061135993e-03
34		1.811766887199139e-10
	1.645782694601946e+00
	1.645782694601974e+00
	1.800000000000000e+00
	-3.423585390376990e-03
35		1.911766887199139e-10
	1.645773476312995e+00
	1.645773476313021e+00
	1.800000000000000e+00
	-3.401440055315912e-03
36		2.011766887199139e-10
	1.645774555465724e+00
	1.645774555465741e+00
	1.800000000000000e+00
	-3.423052716408174e-03
37		2.111766887199139e-10
	1.645769668702163e+00
	1.645769668702163e+00
	1.800000000000000e+00
	-3.401980843867095e-03
38		2.211766887199139e-10
	1.645772066633549e+00
	1.645772066633520e+00
	1.800000000000000e+00
	-3.422545353227601e-03
39		2.311766887199139e-10
	1.645768753418792e+00
	1.645768753418719e+00
	1.800000000000000e+00
	-3.402477370598412e-03
40		2.411766887199139e-10
	1.645771228384768e+00
	1.645771228384625e+00
	1.800000000000000e+00
	-3.422070415272143e-03
41		2.511766887199139e-10
	1.645768625866064e+00
	1.645768625865818e+00
	1.800000000000000e+00
	-3.402937017964174e-03
42		2.611766887199139e-10
	1.645770886985162e+00
	1.645770886984777e+00
	1.800000000000000e+00
	-3.421628190538152e-03
43		2.711766887199139e-10
	1.645768695495528e+00
	1.645768695494971e+00
	1.800000000000000e+00
	-3.403363564899504e-03
44		2.811766887199140e-10
	1.645770706988365e+00
	1.645770706987616e+00
	1.800000000000000e+00
	-3.421217113917505e-03
45		2.911766887199140e-10
	1.645768801225862e+00
	1.645768801224923e+00
	1.800000000000000e+00
	-3.403759690042822e-03
46		3.011766887199140e-10
	1.645770588050754e+00
	1.645770588049665e+00
	1.800000000000000e+00
	-3.420835146551027e-03
47		3.111766887199140e-10
	1.645768902126431e+00
	1.645768902125309e+00
	1.800000000000000e+00
	-3.404127667675826e-03
48		3.211766887199140e-10
	1.645770498027595e+00
	1.645770498026657e+00
	1.800000000000000e+00
	-3.420480278639072e-03
49		3.311766887199140e-10
	1.645768990037167e+00
	1.645768990036768e+00
	1.800000000000000e+00
	-3.404469577097304e-03
50		3.411766887199141e-10
	1.645770425159490e+00
	1.645770425160178e+00
	1.800000000000000e+00
	-3.420150504657771e-03
51		3.511766887199141e-10
	1.645769065142631e+00
	1.645769065145174e+00
	1.800000000000000e+00
	-3.404787334032401e-03
52		3.611766887199141e-10
	1.645770364165175e+00
	1.645770364170572e+00
	1.800000000000000e+00
	-3.419844008490513e-03
53		3.711766887199141e-10
	1.645769129360351e+00
	1.645769129369804e+00
	1.800000000000000e+00
	-3.405082711769581e-03
54		3.811766887199141e-10
	1.645770312112671e+00
	1.645770312127519e+00
	1.800000000000000e+00
	-3.419559074598343e-03
55		3.911766887199141e-10
	1.645769184618519e+00
	1.645769184640048e+00
	1.800000000000000e+00
	-3.405357358567411e-03
56		4.000000000000000e-10
	1.645770263963463e+00
	1.645770263991664e+00
	1.800000000000000e+00
	-3.419277064959597e-03
57		4.010000000000000e-10
	1.645769786215185e+00
	1.645769786244157e+00
	1.800000000000000e+00
	-3.412681904899839e-03
58		4.030000000000000e-10
	1.645769703217130e+00
	1.645769703247631e+00
	1.800000000000000e+00
	-3.412146034177485e-03
59		4.070000000000000e-10
	1.645769769711828e+00
	1.645769769745625e+00
	1.800000000000000e+00
	-3.412614618528416e-03
60		4.150000000000000e-10
	1.645769713922942e+00
	1.645769713962483e+00
	1.800000000000000e+00
	-3.412175863181285e-03
61		4.250000000000000e-10
	1.645769775873863e+00
	1.645769775917424e+00
	1.800000000000000e+00
	-3.412597862765284e-03
62		4.350000000000000e-10
	1.645769726267815e+00
	1.645769726310216e+00
	1.800000000000000e+00
	-3.412190084140200e-03
63		4.450000000000001e-10
	1.645769778881689e+00
	1.645769778912397e+00
	1.800000000000000e+00
	-3.412584143288763e-03
64		4.550000000000001e-10
	1.645769731543004e+00
	1.645769731545552e+00
	1.800000000000000e+00
	-3.412203284884343e-03
65		4.650000000000001e-10
	1.645769778057495e+00
	1.645769778007575e+00
	1.800000000000000e+00
	-3.412571413893622e-03
66		4.750000000000001e-10
	1.645769734403114e+00
	1.645769734267790e+00
	1.800000000000000e+00
	-3.412215529668833e-03
67		4.850000000000001e-10
	1.645769776500564e+00
	1.645769776238001e+00
	1.800000000000000e+00
	-3.412559631111513e-03
68		4.950000000000000e-10
	1.645769736569261e+00
	1.645769736129988e+00
	1.800000000000000e+00
	-3.412226869743001e-03
69		5.000000000000000e-10
	1.645769774140345e+00
	1.645769773593714e+00
	1.800000000000000e+00
	-3.412543557051255e-03
70		5.010000000000000e-10
	1.645769757903154e+00
	1.645769757333307e+00
	1.800000000000000e+00
	-3.412402029544245e-03
71		5.030000000000000e-10
	1.645769754986987e+00
	1.645769754368764e+00
	1.800000000000000e+00
	-3.412380875356557e-03
72		5.070000000000000e-10
	1.645769757398990e+00
	1.645769756676266e+00
	1.800000000000000e+00
	-3.412399220718120e-03
73		5.150000000000000e-10
	1.645769755388969e+00
	1.645769754439343e+00
	1.800000000000000e+00
	-3.412382117012231e-03
74		5.249999999999999e-10
	1.645769757522087e+00
	1.645769756269283e+00
	1.800000000000000e+00
	-3.412398527624574e-03
75		5.349999999999999e-10
	1.645769755731549e+00
	1.645769754194663e+00
	1.800000000000000e+00
	-3.412382702627997e-03
76		5.449999999999999e-10
	1.645769757568187e+00
	1.645769755848005e+00
	1.800000000000000e+00
	-3.412397961647659e-03
77		5.549999999999998e-10
	1.645769755762341e+00
	1.645769754080515e+00
	1.800000000000000e+00
	-3.412383246026797e-03
78		5.649999999999998e-10
	1.645769757069409e+00
	1.645769755826707e+00
	1.800000000000000e+00
	-3.412397435038106e-03
79		5.749999999999998e-10
	1.645769754848160e+00
	1.645769754685880e+00
	1.800000000000000e+00
	-3.412383754244431e-03
80		5.849999999999997e-10
	1.645769755144665e+00
	1.645769757009238e+00
	1.800000000000000e+00
	-3.412396948585417e-03
81		5.949999999999997e-10
	1.645769751853544e+00
	1.645769757041004e+00
	1.800000000000000e+00
	-3.412384222521331e-03
82		6.000000000000000e-10
	1.645769751906942e+00
	1.645769759345289e+00
	1.800000000000000e+00
	-3.412396287230421e-03
83		6.010000000000000e-10
	1.645769751057155e+00
	1.645769759009323e+00
	1.800000000000000e+00
	-3.412390946943565e-03
84		6.030000000000000e-10
	1.645769750356255e+00
	1.645769759373837e+00
	1.800000000000000e+00
	-3.412390076194287e-03
85		6.070000000000000e-10
	1.645769749128784e+00
	1.645769760510819e+00
	1.800000000000000e+00
	-3.412390825978869e-03
86		6.149999999999999e-10
	1.645769745878351e+00
	1.645769762989862e+00
	1.800000000000000e+00
	-3.412390135280352e-03
87		6.249999999999999e-10
	1.645769740926613e+00
	1.645769767108621e+00
	1.800000000000000e+00
	-3.412390801414576e-03
88		6.349999999999999e-10
	1.645769734747776e+00
	1.645769771877236e+00
	1.800000000000000e+00
	-3.412390149629211e-03
89		6.449999999999998e-10
	1.645769727985504e+00
	1.645769777117008e+00
	1.800000000000000e+00
	-3.412390775950886e-03
90		6.549999999999998e-10
	1.645769721195957e+00
	1.645769781633797e+00
	1.800000000000000e+00
	-3.412390175158414e-03
91		6.649999999999998e-10
	1.645769716085418e+00
	1.645769784063408e+00
	1.800000000000000e+00
	-3.412390753904454e-03
92		6.749999999999997e-10
	1.645769714728622e+00
	1.645769781666051e+00
	1.800000000000000e+00
	-3.412390195024647e-03
93		6.849999999999997e-10
	1.645769720728648e+00
	1.645769771037602e+00
	1.800000000000000e+00
	-3.412390734769867e-03
94		6.949999999999997e-10
	1.645769738449904e+00
	1.645769747068161e+00
	1.800000000000000e+00
	-3.412390213002614e-03
95		7.049999999999996e-10
	1.645769773835019e+00
	1.645769703779931e+00
	1.800000000000000e+00
	-3.412390716069096e-03
96		7.149999999999996e-10
	1.645769833332412e+00
	1.645769633790655e+00
	1.800000000000000e+00
	-3.412390233817975e-03
97		7.249999999999996e-10
	1.645769923918329e+00
	1.645769529762267e+00
	1.800000000000000e+00
	-3.412390698212339e-03
98		7.349999999999995e-10
	1.645770050977075e+00
	1.645769385023086e+00
	1.800000000000000e+00
	-3.412390249870850e-03
99		7.449999999999995e-10
	1.645770216687549e+00
	1.645769196506746e+00
	1.800000000000000e+00
	-3.412390683496804e-03
100		7.549999999999995e-10
	1.645770415873207e+00
	1.645768967489226e+00
	1.800000000000000e+00
	-3.412390265767092e-03
101		7.649999999999994e-10
	1.645770631724675e+00
	1.645768713000917e+00
	1.800000000000000e+00
	-3.412390668072689e-03
102		7.749999999999994e-10
	1.645770828818379e+00
	1.645768465499569e+00
	1.800000000000000e+00
	-3.412390279808801e-03
103		7.849999999999994e-10
	1.645770945868592e+00
	1.645768283051033e+00
	1.800000000000000e+00
	-3.412390654307510e-03
104		7.949999999999993e-10
	1.645770886508393e+00
	1.645768257208878e+00
	1.800000000000000e+00
	-3.412390295190778e-03
105		8.049999999999993e-10
	1.645770511458362e+00
	1.645768521599044e+00
	1.800000000000000e+00
	-3.412390640285142e-03
106		8.149999999999993e-10
	1.645769632019884e+00
	1.645769256989647e+00
	1.800000000000000e+00
	-3.412390306275412e-03
107		8.249999999999992e-10
	1.645768010250598e+00
	1.645770691536980e+00
	1.800000000000000e+00
	-3.412390630369842e-03
108		8.349999999999992e-10
	1.645765368703513e+00
	1.645773089437946e+00
	1.800000000000000e+00
	-3.412390316547973e-03
109		8.449999999999991e-10
	1.645761418114466e+00
	1.645776723189720e+00
	1.800000000000000e+00
	-3.412390617590119e-03
110		8.549999999999991e-10
	1.645755909635030e+00
	1.645781819331971e+00
	1.800000000000000e+00
	-3.412390329647624e-03
111		8.649999999999991e-10
	1.645748723058871e+00
	1.645788469526483e+00
	1.800000000000000e+00
	-3.412390609807662e-03
112		8.749999999999990e-10
	1.645739999632309e+00
	1.645796495011507e+00
	1.800000000000000e+00
	-3.412390339920647e-03
113		8.849999999999990e-10
	1.645730329882056e+00
	1.645805257111369e+00
	1.800000000000000e+00
	-3.412390605405011e-03
114		8.949999999999990e-10
	1.645720999252088e+00
	1.645813407763322e+00
	1.800000000000000e+00
	-3.412390360296374e-03
115		9.049999999999989e-10
	1.645714288041608e+00
	1.645818586155631e+00
	1.800000000000000e+00
	-3.412390613033772e-03
116		9.149999999999989e-10
	1.645713803110740e+00
	1.645817080559725e+00
	1.800000000000000e+00
	-3.412390401710274e-03
117		9.249999999999989e-10
	1.645724796572757e+00
	1.645803501559427e+00
	1.800000000000000e+00
	-3.412390666863720e-03
118		9.349999999999989e-10
	1.645754387894936e+00
	1.645770545578866e+00
	1.800000000000000e+00
	-3.412390516801396e-03
119		9.449999999999989e-10
	1.645811560201366e+00
	1.645708977546636e+00
	1.800000000000000e+00
	-3.412390858053039e-03
120		9.549999999999989e-10
	1.645906739581242e+00
	1.645608018809347e+00
	1.800000000000000e+00
	-3.412390893710904e-03
121		9.649999999999988e-10
	1.646050699545307e+00
	1.645456396882429e+00
	1.800000000000000e+00
	-3.412391546650548e-03
122		9.749999999999988e-10
	1.646252475587845e+00
	1.645244396253043e+00
	1.800000000000000e+00
	-3.412392175715520e-03
123		9.849999999999988e-10
	1.646515906218514e+00
	1.644967292041994e+00
	1.800000000000000e+00
	-3.412393867340418e-03
124		9.949999999999987e-10
	1.646834421443471e+00
	1.644630593689531e+00
	1.800000000000000e+00
	-3.412396466970547e-03
125		1.004999999999999e-09
	1.647183767037581e+00
	1.644257489708885e+00
	1.800000000000000e+00
	-3.412401757910922e-03
126		1.014999999999999e-09
	1.647512478472903e+00
	1.643898663395590e+00
	1.800000000000000e+00
	-3.412411020508532e-03
127		1.024999999999999e-09
	1.647730213207117e+00
	1.643644233317147e+00
	1.800000000000000e+00
	-3.412428536120306e-03
128		1.034999999999999e-09
	1.647694459387378e+00
	1.643636738711182e+00
	1.800000000000000e+00
	-3.412460338874487e-03
129		1.044999999999999e-09
	1.647196755425063e+00
	1.644082725084535e+00
	1.800000000000000e+00
	-3.412519327189738e-03
130		1.054999999999999e-09
	1.645950518576782e+00
	1.645258457909790e+00
	1.800000000000000e+00
	-3.412627501408162e-03
131		1.064999999999998e-09
	1.643584293181759e+00
	1.647502698858462e+00
	1.800000000000000e+00
	-3.412827002152088e-03
132		1.074999999999998e-09
	1.639647422564102e+00
	1.651186961922688e+00
	1.800000000000000e+00
	-3.413193606963189e-03
133		1.084999999999998e-09
	1.633640704435639e+00
	1.656653037105680e+00
	1.800000000000000e+00
	-3.413867835103876e-03
134		1.094999999999998e-09
	1.625092593898819e+00
	1.664112375679860e+00
	1.800000000000000e+00
	-3.415104783005529e-03
135		1.104999999999998e-09
	1.613709659928160e+00
	1.673516591788181e+00
	1.800000000000000e+00
	-3.417368375377107e-03
136		1.114999999999998e-09
	1.599632958103093e+00
	1.684432223484812e+00
	1.800000000000000e+00
	-3.421486658577500e-03
137		1.124999999999998e-09
	1.583823583492193e+00
	1.695966626438729e+00
	1.800000000000000e+00
	-3.428903050634808e-03
138		1.134999999999998e-09
	1.568567959802440e+00
	1.706748984326536e+00
	1.800000000000000e+00
	-3.442010955794601e-03
139		1.144999999999998e-09
	1.557968792995711e+00
	1.714843161724434e+00
	1.800000000000000e+00
	-3.464416820767577e-03
140		1.154999999999998e-09
	1.557902981730064e+00
	1.717405571600383e+00
	1.800000000000000e+00
	-3.500410998310757e-03
141		1.164999999999998e-09
	1.574314647210608e+00
	1.710376921260141e+00
	1.800000000000000e+00
	-3.550937223110985e-03
142		1.174999999999998e-09
	1.608898737839601e+00
	1.689400687520199e+00
	1.800000000000000e+00
	-3.606428647701678e-03
143		1.184999999999998e-09
	1.654470962498233e+00
	1.652352362732034e+00
	1.800000000000000e+00
	-3.644688458968343e-03
144		1.194999999999998e-09
	1.697444388553363e+00
	1.600660369416316e+00
	1.800000000000000e+00
	-3.654899377844497e-03
145		1.204999999999998e-09
	1.727807172452028e+00
	1.536842915196602e+00
	1.800000000000000e+00
	-3.646880748324554e-03
146		1.214999999999998e-09
	1.747691225188001e+00
	1.463676938192330e+00
	1.800000000000000e+00
	-3.631967042182684e-03
147		1.224999999999998e-09
	1.763753478247061e+00
	1.385247316921451e+00
	1.800000000000000e+00
	-3.629773661089952e-03
148		1.234999999999998e-09
	1.777023748083172e+00
	1.305453737193166e+00
	1.800000000000000e+00
	-3.667603571130156e-03
149		1.244999999999998e-09
	1.786288190275880e+00
	1.228130470009061e+00
	1.800000000000000e+00
	-3.707569017136458e-03
150		1.254999999999998e-09
	1.791975461634411e+00
	1.155956152805193e+00
	1.800000000000000e+00
	-3.709025882742927e-03
151		1.264999999999998e-09
	1.795294849870552e+00
	1.085251102749292e+00
	1.800000000000000e+00
	-3.696425539060335e-03
152		1.274999999999998e-09
	1.797143137741592e+00
	1.009542414272639e+00
	1.800000000000000e+00
	-3.685665818338856e-03
153		1.284999999999998e-09
	1.798169527484772e+00
	9.286219685391855e-01
	1.800000000000000e+00
	-3.679070275616913e-03
154		1.294999999999998e-09
	1.798734967649053e+00
	8.465271517904525e-01
	1.800000000000000e+00
	-3.691378913546377e-03
155		1.304999999999998e-09
	1.799041225129610e+00
	7.672705777625173e-01
	1.800000000000000e+00
	-3.700637073338298e-03
156		1.314999999999998e-09
	1.799232690350611e+00
	6.945901405024852e-01
	1.800000000000000e+00
	-3.676367357621563e-03
157		1.324999999999998e-09
	1.799380381998742e+00
	6.306895953017236e-01
	1.800000000000000e+00
	-3.683460787369411e-03
158		1.334999999999998e-09
	1.799463589433472e+00
	5.762083746681728e-01
	1.800000000000000e+00
	-3.721624900179214e-03
159		1.344999999999998e-09
	1.799568534079229e+00
	5.310468291097590e-01
	1.800000000000000e+00
	-3.780455693470798e-03
160		1.354999999999997e-09
	1.799743751129328e+00
	4.945593845782534e-01
	1.800000000000000e+00
	-3.823603003066378e-03
161		1.364999999999997e-09
	1.800030202878532e+00
	4.655236063291083e-01
	1.800000000000000e+00
	-3.845593566285085e-03
162		1.374999999999997e-09
	1.800514864587455e+00
	4.423337155946572e-01
	1.800000000000000e+00
	-3.826746187530861e-03
163		1.384999999999997e-09
	1.801409010706521e+00
	4.233859702507306e-01
	1.800000000000000e+00
	-3.785930662668891e-03
164		1.394999999999997e-09
	1.803008063789563e+00
	4.076644654816430e-01
	1.800000000000000e+00
	-3.747076432631337e-03
165		1.404999999999997e-09
	1.804563623662371e+00
	3.951239900706501e-01
	1.800000000000000e+00
	-3.717569698091807e-03
166		1.414999999999997e-09
	1.805042953040107e+00
	3.864729650185484e-01
	1.800000000000000e+00
	-3.642523792248647e-03
167		1.424999999999997e-09
	1.804913977394702e+00
	3.831928129414082e-01
	1.800000000000000e+00
	-3.617897236957566e-03
168		1.434999999999997e-09
	1.804367093140099e+00
	3.882263277970697e-01
	1.800000000000000e+00
	-3.638261182522786e-03
169		1.444999999999997e-09
	1.803591606000393e+00
	4.068370452815714e-01
	1.800000000000000e+00
	-3.700567595328451e-03
170		1.454999999999997e-09
	1.803143834742076e+00
	4.480609421303721e-01
	1.800000000000000e+00
	-3.765360589321083e-03
171		1.464999999999997e-09
	1.803222057506055e+00
	5.281650110910601e-01
	1.800000000000000e+00
	-3.828065885623301e-03
172		1.474999999999997e-09
	1.804095722534061e+00
	6.695506510835194e-01
	1.800000000000000e+00
	-3.858882978243597e-03
173		1.484999999999997e-09
	1.806084388858442e+00
	8.743792319826806e-01
	1.800000000000000e+00
	-3.854167893329529e-03
174		1.494999999999997e-09
	1.809495537491819e+00
	1.119797026226788e+00
	1.800000000000000e+00
	-3.807858953665617e-03
175		1.504999999999997e-09
	1.813001720852507e+00
	1.356244661323528e+00
	1.800000000000000e+00
	-3.753635394233745e-03
176		1.514999999999997e-09
	1.814395653509394e+00
	1.530259823454982e+00
	1.800000000000000e+00
	-3.716130986568787e-03
177		1.524999999999997e-09
	1.812006454975446e+00
	1.638072092626055e+00
	1.800000000000000e+00
	-3.637903108533009e-03
178		1.534999999999997e-09
	1.801624499878758e+00
	1.705308023017956e+00
	1.800000000000000e+00
	-3.577027833231812e-03
179		1.544999999999997e-09
	1.776079192374136e+00
	1.746739944600872e+00
	1.800000000000000e+00
	-3.576902494015518e-03
180		1.554999999999997e-09
	1.730392170447836e+00
	1.770594979972779e+00
	1.800000000000000e+00
	-3.623781057656841e-03
181		1.564999999999997e-09
	1.665192045107327e+00
	1.783826608286581e+00
	1.800000000000000e+00
	-3.692998572236113e-03
182		1.574999999999997e-09
	1.585427095542136e+00
	1.790986592543466e+00
	1.800000000000000e+00
	-3.767769424216518e-03
183		1.584999999999997e-09
	1.497431249749211e+00
	1.794946097595233e+00
	1.800000000000000e+00
	-3.830810547483502e-03
184		1.594999999999997e-09
	1.406875782831311e+00
	1.797075982824461e+00
	1.800000000000000e+00
	-3.864082327804067e-03
185		1.604999999999997e-09
	1.318042607871056e+00
	1.798330957567963e+00
	1.800000000000000e+00
	-3.854951520711972e-03
186		1.614999999999997e-09
	1.233784099794929e+00
	1.799022195461774e+00
	1.800000000000000e+00
	-3.805682068026451e-03
187		1.624999999999997e-09
	1.155724191541589e+00
	1.799426590617220e+00
	1.800000000000000e+00
	-3.747996574781330e-03
188		1.634999999999997e-09
	1.085644208378427e+00
	1.799551088797352e+00
	1.800000000000000e+00
	-3.707172166783868e-03
189		1.644999999999996e-09
	1.025549438756512e+00
	1.799662016204799e+00
	1.800000000000000e+00
	-3.621282260291042e-03
190		1.654999999999996e-09
	9.705856475644180e-01
	1.799727467587934e+00
	1.800000000000000e+00
	-3.561843664913556e-03
191		1.664999999999996e-09
	9.099479268404868e-01
	1.799766246008048e+00
	1.800000000000000e+00
	-3.563356935315235e-03
192		1.674999999999996e-09
	8.417500115820025e-01
	1.799751665336193e+00
	1.800000000000000e+00
	-3.611226630621845e-03
193		1.684999999999996e-09
	7.715925722983346e-01
	1.799780016670134e+00
	1.800000000000000e+00
	-3.681823133302376e-03
194		1.694999999999996e-09
	7.042373039344787e-01
	1.799785862642656e+00
	1.800000000000000e+00
	-3.757902345811216e-03
195		1.704999999999996e-09
	6.430910929300432e-01
	1.799818335477736e+00
	1.800000000000000e+00
	-3.824635866096860e-03
196		1.714999999999996e-09
	5.895768261323753e-01
	1.799829252038904e+00
	1.800000000000000e+00
	-3.861329195991072e-03
197		1.724999999999996e-09
	5.441077684117186e-01
	1.799858069229605e+00
	1.800000000000000e+00
	-3.857714181637103e-03
198		1.734999999999996e-09
	5.064360574259608e-01
	1.799871065244617e+00
	1.800000000000000e+00
	-3.809771970841655e-03
199		1.744999999999996e-09
	4.759583987640476e-01
	1.799889394811856e+00
	1.800000000000000e+00
	-3.751601130446970e-03
200		1.754999999999996e-09
	4.515607700137300e-01
	1.799869549225747e+00
	1.800000000000000e+00
	-3.708872342487653e-03
201		1.764999999999996e-09
	4.320587352951883e-01
	1.799855635086959e+00
	1.800000000000000e+00
	-3.627714566518307e-03
202		1.774999999999996e-09
	4.166716014831224e-01
	1.799869237499411e+00
	1.800000000000000e+00
	-3.559492801725597e-03
203		1.784999999999996e-09
	4.045317459293228e-01
	1.799833295601061e+00
	1.800000000000000e+00
	-3.557244443083291e-03
204		1.794999999999996e-09
	3.948396633131850e-01
	1.799738851246522e+00
	1.800000000000000e+00
	-3.599807263262475e-03
205		1.804999999999996e-09
	3.870633532976486e-01
	1.799708157143791e+00
	1.800000000000000e+00
	-3.670653033406284e-03
206		1.814999999999996e-09
	3.805986358676119e-01
	1.799728529164367e+00
	1.800000000000000e+00
	-3.746010625908041e-03
207		1.824999999999996e-09
	3.750819826947491e-01
	1.799824072652163e+00
	1.800000000000000e+00
	-3.816891890151444e-03
208		1.834999999999996e-09
	3.702248534253251e-01
	1.799981064660390e+00
	1.800000000000000e+00
	-3.857679146300621e-03
209		1.844999999999996e-09
	3.658032231375440e-01
	1.800258731862448e+00
	1.800000000000000e+00
	-3.861593224552976e-03
210		1.854999999999996e-09
	3.615917947753563e-01
	1.800769568344042e+00
	1.800000000000000e+00
	-3.817353988379736e-03
211		1.864999999999996e-09
	3.573655087050323e-01
	1.801763445373537e+00
	1.800000000000000e+00
	-3.759042002838693e-03
212		1.874999999999996e-09
	3.532087664979774e-01
	1.803584733431063e+00
	1.800000000000000e+00
	-3.714223374251192e-03
213		1.884999999999996e-09
	3.496028861605813e-01
	1.804804789329926e+00
	1.800000000000000e+00
	-3.640950951007271e-03
214		1.894999999999996e-09
	3.473593530415920e-01
	1.805069634442827e+00
	1.800000000000000e+00
	-3.562948659118380e-03
215		1.904999999999997e-09
	3.477945332433399e-01
	1.804744012313110e+00
	1.800000000000000e+00
	-3.553646035400723e-03
216		1.914999999999997e-09
	3.535426623109633e-01
	1.803880590160033e+00
	1.800000000000000e+00
	-3.590025872988833e-03
217		1.924999999999997e-09
	3.688953059211268e-01
	1.803050340008641e+00
	1.800000000000000e+00
	-3.658969784057056e-03
218		1.934999999999997e-09
	4.007376588694223e-01
	1.802544707962028e+00
	1.800000000000000e+00
	-3.734144917868089e-03
219		1.944999999999997e-09
	4.625105945997072e-01
	1.802588868373130e+00
	1.800000000000000e+00
	-3.807411381138440e-03
220		1.954999999999997e-09
	5.779226421749667e-01
	1.803274262442760e+00
	1.800000000000000e+00
	-3.853659013194162e-03
221		1.964999999999998e-09
	7.658421352123812e-01
	1.804901489583684e+00
	1.800000000000000e+00
	-3.864097204235574e-03
222		1.974999999999998e-09
	1.009273589030513e+00
	1.807870155058694e+00
	1.800000000000000e+00
	-3.826164298155932e-03
223		1.984999999999998e-09
	1.264749550706853e+00
	1.811741317793797e+00
	1.800000000000000e+00
	-3.767387795751761e-03
224		1.994999999999998e-09
	1.470704872228084e+00
	1.814278593086843e+00
	1.800000000000000e+00
	-3.720348552538989e-03
225		2.004999999999998e-09
	1.602358649564670e+00
	1.813996154324191e+00
	1.800000000000000e+00
	-3.655606525031143e-03
226		2.014999999999999e-09
	1.683611710463650e+00
	1.808318626572190e+00
	1.800000000000000e+00
	-3.569833932152198e-03
227		2.024999999999999e-09
	1.733978518513311e+00
	1.791007588062191e+00
	1.800000000000000e+00
	-3.551332919243221e-03
228		2.034999999999999e-09
	1.763567793221770e+00
	1.755365255439353e+00
	1.800000000000000e+00
	-3.581635974934812e-03
229		2.044999999999999e-09
	1.779945438073202e+00
	1.699319454126422e+00
	1.800000000000000e+00
	-3.646948234137536e-03
230		2.054999999999999e-09
	1.788956056534928e+00
	1.626044139009411e+00
	1.800000000000000e+00
	-3.722599671559499e-03
231		2.064999999999999e-09
	1.793769020972407e+00
	1.541485059767175e+00
	1.800000000000000e+00
	-3.796615543605858e-03
232		2.075000000000000e-09
	1.796492463272452e+00
	1.451757250096729e+00
	1.800000000000000e+00
	-3.849207409328231e-03
233		2.085000000000000e-09
	1.797924018256884e+00
	1.361781343814500e+00
	1.800000000000000e+00
	-3.864891827804242e-03
234		2.095000000000000e-09
	1.798840326120118e+00
	1.275115105613617e+00
	1.800000000000000e+00
	-3.835188894404355e-03
235		2.105000000000000e-09
	1.799293298325168e+00
	1.193906180708203e+00
	1.800000000000000e+00
	-3.775790817603551e-03
236		2.115000000000000e-09
	1.799567643308364e+00
	1.119572688610015e+00
	1.800000000000000e+00
	-3.726876813452418e-03
237		2.125000000000000e-09
	1.799606873124310e+00
	1.054354332043395e+00
	1.800000000000000e+00
	-3.669465997083802e-03
238		2.135000000000001e-09
	1.799736602193673e+00
	9.982512429180426e-01
	1.800000000000000e+00
	-3.579545061013800e-03
239		2.145000000000001e-09
	1.799747894851857e+00
	9.419882416322469e-01
	1.800000000000000e+00
	-3.549915461189327e-03
240		2.155000000000001e-09
	1.799783536677803e+00
	8.774988890116910e-01
	1.800000000000000e+00
	-3.574614861627995e-03
241		2.165000000000001e-09
	1.799754857512355e+00
	8.078383248991541e-01
	1.800000000000000e+00
	-3.634779413806660e-03
242		2.175000000000001e-09
	1.799802247959309e+00
	7.385932086732652e-01
	1.800000000000000e+00
	-3.711388269590877e-03
243		2.185000000000001e-09
	1.799790895141965e+00
	6.739641861444167e-01
	1.800000000000000e+00
	-3.784914747921757e-03
244		2.195000000000002e-09
	1.799840167319322e+00
	6.164171117633818e-01
	1.800000000000000e+00
	-3.844163668071192e-03
245		2.205000000000002e-09
	1.799832896848256e+00
	5.667736678671570e-01
	1.800000000000000e+00
	-3.864219300745753e-03
246		2.215000000000002e-09
	1.799877894631505e+00
	5.251224501726764e-01
	1.800000000000000e+00
	-3.843799547501412e-03
247		2.225000000000002e-09
	1.799873087537759e+00
	4.910307440890760e-01
	1.800000000000000e+00
	-3.784242508211931e-03
248		2.235000000000002e-09
	1.799897866657635e+00
	4.636575539969609e-01
	1.800000000000000e+00