Title: **.subckt ideal_bandgap_test
Date: Sun Sep 27 15:31:46  2020
Plotname: DC transfer characteristic
Flags: real
No. Variables: 31
No. Points: 101     
Variables:
	0	temp-sweep	temp-sweep
	1	v(node1)	voltage
	2	v(net1)	voltage
	3	v(node3)	voltage
	4	v(node2)	voltage
	5	v(vdd)	voltage
	6	v(sky130_fd_pr__esd_nfet_05v0_nvt.pm3)	voltage
	7	v()	voltage
	8	v(gsu_int1)	voltage
	9	i(bgsu)	current
	10	i(v1)	current
	11	i(@r1[i])	current
	12	i(@r2[i])	current
	13	i(@q.xq1.qsky130_fd_pr__pnp_05v5_w3p40l3p40[ic])	current
	14	i(@q.xq1.qsky130_fd_pr__pnp_05v5_w3p40l3p40[ie])	current
	15	i(@q.xq1.qsky130_fd_pr__pnp_05v5_w3p40l3p40[ib])	current
	16	i(@q.xq1.qsky130_fd_pr__pnp_05v5_w3p40l3p40[is])	current
	17	i(@q.xq2.qsky130_fd_pr__pnp_05v5_w3p40l3p40[ic])	current
	18	i(@q.xq2.qsky130_fd_pr__pnp_05v5_w3p40l3p40[ie])	current
	19	i(@q.xq2.qsky130_fd_pr__pnp_05v5_w3p40l3p40[ib])	current
	20	i(@q.xq2.qsky130_fd_pr__pnp_05v5_w3p40l3p40[is])	current
	21	i(@g1[i])	current
	22	i(@g2[i])	current
	23	i(@g3[i])	current
	24	@include[current]	capacitance
	25	i(@gsu[i])	current
	26	i(@bgsu[i])	current
	27	i(@cs1[i])	current
	28	i(@cs2[i])	current
	29	i(@cs3[i])	current
	30	i(@cs4[i])	current
Values:
0		-4.000000000000000e+01
	8.411415208870113e-01
	7.987563416244386e-01
	8.411415208793649e-01
	8.411415208931542e-01
	1.800000000000000e+00
	0.000000000000000e+00
	0.000000000000000e+00
	0.000000000000000e+00
	0.000000000000000e+00
	-2.607493661344051e-05
	6.142779603271403e-06
	1.378920526031746e-05
	5.522906871589754e-06
	-6.142817452589913e-06
	6.199105815524465e-07
	-5.522872703801300e-16
	5.537989588697644e-06
	-6.142871360701644e-06
	6.048817725577950e-07
	-5.537952917136907e-16
	6.142863995250991e-06
	6.142863995250991e-06
	1.378930303275183e-05
	0.000000000000000e+00
	0.000000000000000e+00
	0.000000000000000e+00
	0.000000000000000e+00
	0.000000000000000e+00
	0.000000000000000e+00
	0.000000000000000e+00
1		-3.834999999999999e+01
	8.387185862283640e-01
	7.960719618383741e-01
	8.387185862207951e-01
	8.387185862345446e-01
	1.800000000000000e+00
	0.000000000000000e+00
	0.000000000000000e+00
	0.000000000000000e+00
	0.000000000000000e+00
	-2.611102536320686e-05
	6.180670201447811e-06
	1.374948502001304e-05
	5.617139394734236e-06
	-6.239362580362833e-06
	6.222231861850061e-07
	-5.564091752046397e-16
	5.620267618510529e-06
	-6.226437133040829e-06
	6.061695150881967e-07
	-5.578969580255326e-16
	6.180611578088246e-06
	6.180611578088246e-06
	1.374955704847025e-05
	0.000000000000000e+00
	0.000000000000000e+00
	0.000000000000000e+00
	0.000000000000000e+00
	0.000000000000000e+00
	0.000000000000000e+00
	0.000000000000000e+00
2		-3.669999999999999e+01
	8.360285506726667e-01
	7.930387942618592e-01
	8.360285506651915e-01
	8.360285506788970e-01
	1.800000000000000e+00
	0.000000000000000e+00
	0.000000000000000e+00
	0.000000000000000e+00
	0.000000000000000e+00
	-2.616620622575283e-05
	6.230399479827173e-06
	1.370538607647855e-05
	5.616926517752185e-06
	-6.231303484702665e-06
	6.143769675120909e-07
	-5.616108471996894e-16
	5.631129119448161e-06
	-6.230882663320877e-06
	5.997535444357827e-07
	-5.630664894134135e-16
	6.230349569591453e-06
	6.230349569591453e-06
	1.370548119439263e-05
	0.000000000000000e+00
	0.000000000000000e+00
	0.000000000000000e+00
	0.000000000000000e+00
	0.000000000000000e+00
	0.000000000000000e+00
	0.000000000000000e+00
3		-3.504999999999998e+01
	8.334642473899199e-01
	7.901703264398506e-01
	8.334642473825309e-01
	8.334642473961943e-01
	1.800000000000000e+00
	0.000000000000000e+00
	0.000000000000000e+00
	0.000000000000000e+00
	0.000000000000000e+00
	-2.621207386255264e-05
	6.274481297111482e-06
	1.366334831774641e-05
	5.663122285334429e-06
	-6.274678165682136e-06
	6.115558809140009e-07
	-5.662943924867949e-16
	5.677367000292851e-06
	-6.274551165733563e-06
	5.971841660084386e-07
	-5.677266012579681e-16
	6.274425423669072e-06
	6.274425423669072e-06
	1.366340374175934e-05
	0.000000000000000e+00
	0.000000000000000e+00
	0.000000000000000e+00
	0.000000000000000e+00
	0.000000000000000e+00
	0.000000000000000e+00
	0.000000000000000e+00
4		-3.339999999999998e+01
	8.308971153124393e-01
	7.872990334728283e-01
	8.308971153051364e-01
	8.308971153187578e-01
	1.800000000000000e+00
	0.000000000000000e+00
	0.000000000000000e+00
	0.000000000000000e+00
	0.000000000000000e+00
	-2.625840716063976e-05
	6.318562585450870e-06
	1.362126418533011e-05
	5.709759297445993e-06
	-6.318562642464394e-06
	6.088033455893760e-07
	-5.709759244418785e-16
	5.724021665557051e-06
	-6.318700357511785e-06
	5.946786925271357e-07
	-5.724021614111965e-16
	6.318501277746691e-06
	6.318501277746691e-06
	1.362132628912605e-05
	0.000000000000000e+00
	0.000000000000000e+00
	0.000000000000000e+00
	0.000000000000000e+00
	0.000000000000000e+00
	0.000000000000000e+00
	0.000000000000000e+00
5		-3.174999999999997e+01
	8.283238207810983e-01
	7.844231555361317e-01
	8.283238207738816e-01
	8.283238207874607e-01
	1.800000000000000e+00
	0.000000000000000e+00
	0.000000000000000e+00
	0.000000000000000e+00
	0.000000000000000e+00
	-2.630404196679592e-05
	6.362415252893711e-06
	1.357907902908003e-05
	5.756348134972042e-06
	-6.362415403593254e-06
	6.060672691968464e-07
	-5.756347997034824e-16
	5.770180902869595e-06
	-6.362322321955379e-06
	5.921414196628029e-07
	-5.770180662502816e-16
	6.362355087219385e-06
	6.362355087219385e-06
	1.357913781419029e-05
	0.000000000000000e+00
	0.000000000000000e+00
	0.000000000000000e+00
	0.000000000000000e+00
	0.000000000000000e+00
	0.000000000000000e+00
	0.000000000000000e+00
6		-3.009999999999997e+01
	8.257480156744595e-01
	7.815434552128445e-01
	8.257480156673290e-01
	8.257480156808660e-01
	1.800000000000000e+00
	0.000000000000000e+00
	0.000000000000000e+00
	0.000000000000000e+00
	0.000000000000000e+00
	-2.634990960359573e-05
	6.406458037915221e-06
	1.353685271585785e-05
	5.803090124228049e-06
	-6.406458141633016e-06
	6.033680179852756e-07
	-5.803090028694210e-16
	5.816825754588331e-06
	-6.406499594733251e-06
	5.896738407266021e-07
	-5.816825714128233e-16
	6.406430941297003e-06
	6.406430941297003e-06
	1.353694933925453e-05
	0.000000000000000e+00
	0.000000000000000e+00
	0.000000000000000e+00
	0.000000000000000e+00
	0.000000000000000e+00
	0.000000000000000e+00
	0.000000000000000e+00
7		-2.844999999999996e+01
	8.231670395086376e-01
	7.786590909078391e-01
	8.231670395015933e-01
	8.231670395150880e-01
	1.800000000000000e+00
	0.000000000000000e+00
	0.000000000000000e+00
	0.000000000000000e+00
	0.000000000000000e+00
	-2.639531157910824e-05
	6.450427333449048e-06
	1.349454163117366e-05
	5.849746533210984e-06
	-6.450427487262849e-06
	6.006809546368396e-07
	-5.849746392084590e-16
	5.863227630837537e-06
	-6.450428371093124e-06
	5.872007408419107e-07
	-5.863227463288982e-16
	6.450395773072159e-06
	6.450395773072159e-06
	1.349464984201632e-05
	0.000000000000000e+00
	0.000000000000000e+00
	0.000000000000000e+00
	0.000000000000000e+00
	0.000000000000000e+00
	0.000000000000000e+00
	0.000000000000000e+00
8		-2.679999999999995e+01
	8.205812378701689e-01
	7.757701936284426e-01
	8.205812378632110e-01
	8.205812378766633e-01
	1.800000000000000e+00
	0.000000000000000e+00
	0.000000000000000e+00
	0.000000000000000e+00
	0.000000000000000e+00
	-2.644117921590805e-05
	6.494354237931352e-06
	1.345215144038051e-05
	5.896345408652489e-06
	-6.494354382315864e-06
	5.980089742530095e-07
	-5.896345276053643e-16
	5.909472017730603e-06
	-6.494203331792969e-06
	5.847313146533133e-07
	-5.909471872566803e-16
	6.494360604847316e-06
	6.494360604847316e-06
	1.345223932247563e-05
	0.000000000000000e+00
	0.000000000000000e+00
	0.000000000000000e+00
	0.000000000000000e+00
	0.000000000000000e+00
	0.000000000000000e+00
	0.000000000000000e+00
9		-2.514999999999995e+01
	8.179927706443830e-01
	7.728774821338430e-01
	8.179927706375116e-01
	8.179927706509215e-01
	1.800000000000000e+00
	0.000000000000000e+00
	0.000000000000000e+00
	0.000000000000000e+00
	0.000000000000000e+00
	-2.648634836077690e-05
	6.538447610223193e-06
	1.340971755143462e-05
	5.943077054484654e-06
	-6.538447711464727e-06
	5.953706575743810e-07
	-5.943076960935080e-16
	5.956138456090324e-06
	-6.538461301071425e-06
	5.823228455767139e-07
	-5.956138411404368e-16
	6.538436458924934e-06
	6.538436458924934e-06
	1.340982880293495e-05
	0.000000000000000e+00
	0.000000000000000e+00
	0.000000000000000e+00
	0.000000000000000e+00
	0.000000000000000e+00
	0.000000000000000e+00
	0.000000000000000e+00
10		-2.349999999999994e+01
	8.153988197691580e-01
	7.699800629120018e-01
	8.153988197623731e-01
	8.153988197757404e-01
	1.800000000000000e+00
	0.000000000000000e+00
	0.000000000000000e+00
	0.000000000000000e+00
	0.000000000000000e+00
	-2.653221599757671e-05
	6.582428530022627e-06
	1.336719376659628e-05
	5.989687796317877e-06
	-6.582428683625274e-06
	5.927408879063663e-07
	-5.989687654930596e-16
	6.002453308572147e-06
	-6.582351917068463e-06
	5.798986090965611e-07
	-6.002453123679710e-16
	6.582401290700091e-06
	6.582401290700091e-06
	1.336730726109181e-05
	0.000000000000000e+00
	0.000000000000000e+00
	0.000000000000000e+00
	0.000000000000000e+00
	0.000000000000000e+00
	0.000000000000000e+00
	0.000000000000000e+00
11		-2.184999999999994e+01
	8.128013987818598e-01
	7.670786063470021e-01
	8.128013987751616e-01
	8.128013987884862e-01
	1.800000000000000e+00
	0.000000000000000e+00
	0.000000000000000e+00
	0.000000000000000e+00
	0.000000000000000e+00
	-2.657761797308922e-05
	6.626491657225748e-06
	1.332461309467478e-05
	6.036354983129816e-06
	-6.626491769513809e-06
	5.901367869876292e-07
	-6.036354879542586e-16
	6.048956945781879e-06
	-6.626468415237138e-06
	5.775114700601549e-07
	-6.048956871569713e-16
	6.626477144777709e-06
	6.626477144777709e-06
	1.332467469694620e-05
	0.000000000000000e+00
	0.000000000000000e+00
	0.000000000000000e+00
	0.000000000000000e+00
	0.000000000000000e+00
	0.000000000000000e+00
	0.000000000000000e+00
12		-2.019999999999993e+01
	8.101989841235607e-01
	7.641726378370902e-01
	8.101989841169491e-01
	8.101989841302312e-01
	1.800000000000000e+00
	0.000000000000000e+00
	0.000000000000000e+00
	0.000000000000000e+00
	0.000000000000000e+00
	-2.662301994860172e-05
	6.670484969053697e-06
	1.328195055929425e-05
	6.082940169111790e-06
	-6.670485108325294e-06
	5.875449398217986e-07
	-6.082940040610732e-16
	6.095226933006482e-06
	-6.670347492039751e-06
	5.751205596427911e-07
	-6.095226781313336e-16
	6.670441976552866e-06
	6.670441976552866e-06
	1.328204213280060e-05
	0.000000000000000e+00
	0.000000000000000e+00
	0.000000000000000e+00
	0.000000000000000e+00
	0.000000000000000e+00
	0.000000000000000e+00
	0.000000000000000e+00
13		-1.854999999999993e+01
	8.075936012246737e-01
	7.612628312243642e-01
	8.075936012181490e-01
	8.075936012313883e-01
	1.800000000000000e+00
	0.000000000000000e+00
	0.000000000000000e+00
	0.000000000000000e+00
	0.000000000000000e+00
	-2.666842192411423e-05
	6.714604347870941e-06
	1.323923936423195e-05
	6.129622370350767e-06
	-6.714604447763385e-06
	5.849820780255805e-07
	-6.129622277690031e-16
	6.141808430086682e-06
	-6.714586008170256e-06
	5.727775786977552e-07
	-6.141808376182306e-16
	6.714628852932947e-06
	6.714628852932947e-06
	1.323929854635253e-05
	0.000000000000000e+00
	0.000000000000000e+00
	0.000000000000000e+00
	0.000000000000000e+00
	0.000000000000000e+00
	0.000000000000000e+00
	0.000000000000000e+00
14		-1.689999999999992e+01
	8.049835262623343e-01
	7.583486465696890e-01
	8.049835262558963e-01
	8.049835262690929e-01
	1.800000000000000e+00
	0.000000000000000e+00
	0.000000000000000e+00
	0.000000000000000e+00
	0.000000000000000e+00
	-2.671359106898308e-05
	6.758678216325396e-06
	1.319645125009666e-05
	6.176245043825504e-06
	-6.758678345829076e-06
	5.824333026211958e-07
	-6.176244924111680e-16
	6.188223992329971e-06
	-6.758661087256843e-06
	5.704370955456954e-07
	-6.188223859857969e-16
	6.758593684708103e-06
	6.758593684708103e-06
	1.319655495990446e-05
	0.000000000000000e+00
	0.000000000000000e+00
	0.000000000000000e+00
	0.000000000000000e+00
	0.000000000000000e+00
	0.000000000000000e+00
	0.000000000000000e+00
15		-1.524999999999994e+01
	8.023694837415795e-01
	7.554303360215751e-01
	8.023694837352285e-01
	8.023694837483822e-01
	1.800000000000000e+00
	0.000000000000000e+00
	0.000000000000000e+00
	0.000000000000000e+00
	0.000000000000000e+00
	-2.675945870578289e-05
	6.802775031884696e-06
	1.315359809402014e-05
	6.222870838171850e-06
	-6.802775146046340e-06
	5.799043084967770e-07
	-6.222870732349693e-16
	6.234664252621427e-06
	-6.802781189773037e-06
	5.681169377750767e-07
	-6.234664158165267e-16
	6.802780561088184e-06
	6.802780561088184e-06
	1.315370035115393e-05
	0.000000000000000e+00
	0.000000000000000e+00
	0.000000000000000e+00
	0.000000000000000e+00
	0.000000000000000e+00
	0.000000000000000e+00
	0.000000000000000e+00
16		-1.359999999999997e+01
	7.997512724238550e-01
	7.525078521262739e-01
	7.997512724175913e-01
	7.997512724307020e-01
	1.800000000000000e+00
	0.000000000000000e+00
	0.000000000000000e+00
	0.000000000000000e+00
	0.000000000000000e+00
	-2.680439502000809e-05
	6.846872506895812e-06
	1.311067659700969e-05
	6.269479541867747e-06
	-6.846872622835765e-06
	5.773930815949659e-07
	-6.269479434193974e-16
	6.281067170036959e-06
	-6.846878404571685e-06
	5.658112351628325e-07
	-6.281067066468346e-16
	6.846967437468265e-06
	6.846967437468265e-06
	1.311073472010094e-05
	0.000000000000000e+00
	0.000000000000000e+00
	0.000000000000000e+00
	0.000000000000000e+00
	0.000000000000000e+00
	0.000000000000000e+00
	0.000000000000000e+00
17		-1.194999999999999e+01
	7.971289952032177e-01
	7.495812455150492e-01
	7.971289951970408e-01
	7.971289952101086e-01
	1.800000000000000e+00
	0.000000000000000e+00
	0.000000000000000e+00
	0.000000000000000e+00
	0.000000000000000e+00
	-2.684956416487694e-05
	6.890978215676585e-06
	1.306768844585313e-05
	6.316078215319195e-06
	-6.890978327989841e-06
	5.749001133022536e-07
	-6.316078110787417e-16
	6.327453898967860e-06
	-6.890975725397520e-06
	5.635218270624051e-07
	-6.327453800972112e-16
	6.890932269243422e-06
	6.890932269243422e-06
	1.306776908904794e-05
	0.000000000000000e+00
	0.000000000000000e+00
	0.000000000000000e+00
	0.000000000000000e+00
	0.000000000000000e+00
	0.000000000000000e+00
	0.000000000000000e+00
18		-1.030000000000001e+01
	7.945027439022110e-01
	7.466505630889453e-01
	7.945027438961214e-01
	7.945027439091461e-01
	1.800000000000000e+00
	0.000000000000000e+00
	0.000000000000000e+00
	0.000000000000000e+00
	0.000000000000000e+00
	-2.689519897103310e-05
	6.935098668589231e-06
	1.302463514583806e-05
	6.362672993746797e-06
	-6.935098777600778e-06
	5.724257844902486e-07
	-6.362672892107693e-16
	6.373842714289476e-06
	-6.935092924730247e-06
	5.612502110781560e-07
	-6.373842621167566e-16
	6.935119145623503e-06
	6.935119145623503e-06
	1.302469243569249e-05
	0.000000000000000e+00
	0.000000000000000e+00
	0.000000000000000e+00
	0.000000000000000e+00
	0.000000000000000e+00
	0.000000000000000e+00
	0.000000000000000e+00
19		-8.650000000000034e+00
	7.918729447419756e-01
	7.437159597834192e-01
	7.918729447359732e-01
	7.918729447489549e-01
	1.800000000000000e+00
	0.000000000000000e+00
	0.000000000000000e+00
	0.000000000000000e+00
	0.000000000000000e+00
	-2.694036811590195e-05
	6.979273182399472e-06
	1.298152368419628e-05
	6.409300212365868e-06
	-6.979273282595516e-06
	5.699730708705781e-07
	-6.409300118753423e-16
	6.420343808650034e-06
	-6.979349677849382e-06
	5.590058698413817e-07
	-6.420343734663131e-16
	6.979306022003584e-06
	6.979306022003584e-06
	1.298161578233703e-05
	0.000000000000000e+00
	0.000000000000000e+00
	0.000000000000000e+00
	0.000000000000000e+00
	0.000000000000000e+00
	0.000000000000000e+00
	0.000000000000000e+00
20		-7.000000000000057e+00
	7.892385160477510e-01
	7.407771022244511e-01
	7.892385160418359e-01
	7.892385160547744e-01
	1.800000000000000e+00
	0.000000000000000e+00
	0.000000000000000e+00
	0.000000000000000e+00
	0.000000000000000e+00
	-2.698530443012714e-05
	7.023393307724612e-06
	1.293833632855469e-05
	6.455860274832577e-06
	-7.023393425258005e-06
	5.675331510710137e-07
	-6.455860165326191e-16
	6.466653613165854e-06
	-7.023415608068842e-06
	5.567619955496539e-07
	-6.466653488598102e-16
	7.023381876081203e-06
	7.023381876081203e-06
	1.293842810667911e-05
	0.000000000000000e+00
	0.000000000000000e+00
	0.000000000000000e+00
	0.000000000000000e+00
	0.000000000000000e+00
	0.000000000000000e+00
	0.000000000000000e+00
21		-5.350000000000080e+00
	7.866008325074657e-01
	7.378344518838855e-01
	7.866008325016383e-01
	7.866008325145334e-01
	1.800000000000000e+00
	0.000000000000000e+00
	0.000000000000000e+00
	0.000000000000000e+00
	0.000000000000000e+00
	-2.703070640563965e-05
	7.067591394721766e-06
	1.289509561478096e-05
	6.502475113894221e-06
	-7.067591487123719e-06
	5.651163738797455e-07
	-6.502475027170967e-16
	6.513142910860168e-06
	-7.067693672309923e-06
	5.545507621010690e-07
	-6.513142849149771e-16
	7.067679774763747e-06
	7.067679774763747e-06
	1.289512940871873e-05
	0.000000000000000e+00
	0.000000000000000e+00
	0.000000000000000e+00
	0.000000000000000e+00
	0.000000000000000e+00
	0.000000000000000e+00
	0.000000000000000e+00
22		-3.700000000000102e+00
	7.839582122508899e-01
	7.348874808639743e-01
	7.839582122451497e-01
	7.839582122580016e-01
	1.800000000000000e+00
	0.000000000000000e+00
	0.000000000000000e+00
	0.000000000000000e+00
	0.000000000000000e+00
	-2.707494422793388e-05
	7.111700201002267e-06
	1.285177397123196e-05
	6.548990824276489e-06
	-7.111700320579409e-06
	5.627094969578194e-07
	-6.548990712525460e-16
	6.559342846923729e-06
	-7.111674577389954e-06
	5.523317311221593e-07
	-6.559342707032796e-16
	7.111644606538903e-06
	7.111644606538903e-06
	1.285183071075835e-05
	0.000000000000000e+00
	0.000000000000000e+00
	0.000000000000000e+00
	0.000000000000000e+00
	0.000000000000000e+00
	0.000000000000000e+00
	0.000000000000000e+00
23		-2.050000000000125e+00
	7.813126879291010e-01
	7.319368631305038e-01
	7.813126879234484e-01
	7.813126879362570e-01
	1.800000000000000e+00
	0.000000000000000e+00
	0.000000000000000e+00
	0.000000000000000e+00
	0.000000000000000e+00
	-2.712034620344639e-05
	7.155916637477863e-06
	1.280840472005653e-05
	6.595589048400055e-06
	-7.155916722020022e-06
	5.603276742795255e-07
	-6.595588969006243e-16
	6.605805849907834e-06
	-7.155957739930970e-06
	5.501518906837178e-07
	-6.605805801150472e-16
	7.155942505221446e-06
	7.155942505221446e-06
	1.280853201279797e-05
	0.000000000000000e+00
	0.000000000000000e+00
	0.000000000000000e+00
	0.000000000000000e+00
	0.000000000000000e+00
	0.000000000000000e+00
	0.000000000000000e+00
24		-4.000000000001478e-01
	7.786624659460706e-01
	7.289820343452400e-01
	7.786624659405057e-01
	7.786624659532707e-01
	1.800000000000000e+00
	0.000000000000000e+00
	0.000000000000000e+00
	0.000000000000000e+00
	0.000000000000000e+00
	-2.716528251767159e-05
	7.200062550845011e-06
	1.276495845804108e-05
	6.642105625947784e-06
	-7.200062663025088e-06
	5.579570377415140e-07
	-6.642105520859379e-16
	6.652031907188097e-06
	-7.200000758689894e-06
	5.479688521669998e-07
	-6.652031781851850e-16
	7.200129381601528e-06
	7.200129381601528e-06
	1.276501127023266e-05
	0.000000000000000e+00
	0.000000000000000e+00
	0.000000000000000e+00
	0.000000000000000e+00
	0.000000000000000e+00
	0.000000000000000e+00
	0.000000000000000e+00
25		1.249999999999829e+00
	7.760092095547069e-01
	7.260235484803559e-01
	7.760092095492296e-01
	7.760092095619512e-01
	1.800000000000000e+00
	0.000000000000000e+00
	0.000000000000000e+00
	0.000000000000000e+00
	0.000000000000000e+00
	-2.721021883189678e-05
	7.244298706427678e-06
	1.272146245162671e-05
	6.688689116923703e-06
	-7.244298790450437e-06
	5.556096741956034e-07
	-6.688689037900319e-16
	6.698472680826581e-06
	-7.244292863477617e-06
	5.458201833208829e-07
	-6.698472628268933e-16
	7.244316257981609e-06
	7.244316257981609e-06
	1.272160154996982e-05
	0.000000000000000e+00
	0.000000000000000e+00
	0.000000000000000e+00
	0.000000000000000e+00
	0.000000000000000e+00
	0.000000000000000e+00
	0.000000000000000e+00
26		2.899999999999807e+00
	7.733518182137051e-01
	7.230610651602296e-01
	7.733518182083157e-01
	7.733518182209936e-01
	1.800000000000000e+00
	0.000000000000000e+00
	0.000000000000000e+00
	0.000000000000000e+00
	0.000000000000000e+00
	-2.725515514612198e-05
	7.288514935286308e-06
	1.267789865915272e-05
	6.735237954859013e-06
	-7.288515035176653e-06
	5.532770809911643e-07
	-6.735237861060957e-16
	6.744818671338066e-06
	-7.288498676272930e-06
	5.436800056093463e-07
	-6.744818575091238e-16
	7.288503134361690e-06
	7.288503134361690e-06
	1.267796978510205e-05
	0.000000000000000e+00
	0.000000000000000e+00
	0.000000000000000e+00
	0.000000000000000e+00
	0.000000000000000e+00
	0.000000000000000e+00
	0.000000000000000e+00
27		4.549999999999784e+00
	7.706912531663561e-01
	7.200949108278235e-01
	7.706912531610546e-01
	7.706912531736889e-01
	1.800000000000000e+00
	0.000000000000000e+00
	0.000000000000000e+00
	0.000000000000000e+00
	0.000000000000000e+00
	-2.729985862970352e-05
	7.332803237468494e-06
	1.263428283870581e-05
	6.781837387530827e-06
	-7.332803321003657e-06
	5.509659341510134e-07
	-6.781837308717578e-16
	6.791328809275502e-06
	-7.332898038193330e-06
	5.415692295969613e-07
	-6.791328752501457e-16
	7.332801033044234e-06
	7.332801033044234e-06
	1.263433802023428e-05
	0.000000000000000e+00
	0.000000000000000e+00
	0.000000000000000e+00
	0.000000000000000e+00
	0.000000000000000e+00
	0.000000000000000e+00
	0.000000000000000e+00
28		6.199999999999761e+00
	7.680257809260170e-01
	7.171245398857000e-01
	7.680257809208033e-01
	7.680257809333940e-01
	1.800000000000000e+00
	0.000000000000000e+00
	0.000000000000000e+00
	0.000000000000000e+00
	0.000000000000000e+00
	-2.734502777457237e-05
	7.376991455118407e-06
	1.259058657247219e-05
	6.828328133429879e-06
	-7.376991564664691e-06
	5.486634319176441e-07
	-6.828328030204326e-16
	6.837518283030513e-06
	-7.376966983198329e-06
	5.394487008515681e-07
	-6.837518149391090e-16
	7.376987909424315e-06
	7.376987909424315e-06
	1.259070625536651e-05
	0.000000000000000e+00
	0.000000000000000e+00
	0.000000000000000e+00
	0.000000000000000e+00
	0.000000000000000e+00
	0.000000000000000e+00
	0.000000000000000e+00
29		7.849999999999739e+00
	7.653562982254364e-01
	7.141502575484040e-01
	7.653562982203105e-01
	7.653562982328574e-01
	1.800000000000000e+00
	0.000000000000000e+00
	0.000000000000000e+00
	0.000000000000000e+00
	0.000000000000000e+00
	-2.738926559686661e-05
	7.421165315511939e-06
	1.254682456098870e-05
	6.874789571537290e-06
	-7.421165409191709e-06
	5.463758383418983e-07
	-6.874789483063866e-16
	6.883628223865885e-06
	-7.420966277521988e-06
	5.373380543444656e-07
	-6.883628134768046e-16
	7.421063763501934e-06
	7.421063763501934e-06
	1.254696346819628e-05
	0.000000000000000e+00
	0.000000000000000e+00
	0.000000000000000e+00
	0.000000000000000e+00
	0.000000000000000e+00
	0.000000000000000e+00
	0.000000000000000e+00
30		9.499999999999716e+00
	7.626848896696157e-01
	7.111727535142290e-01
	7.626848896645781e-01
	7.626848896770813e-01
	1.800000000000000e+00
	0.000000000000000e+00
	0.000000000000000e+00
	0.000000000000000e+00
	0.000000000000000e+00
	-2.743420191109180e-05
	7.465526979041541e-06
	1.250303097810784e-05
	6.921409567690074e-06
	-7.465527042024520e-06
	5.441174750265871e-07
	-6.921409507735059e-16
	6.930229118384142e-06
	-7.465510909668417e-06
	5.352817919772973e-07
	-6.930229097275552e-16
	7.465583706789403e-06
	7.465583706789403e-06
	1.250310965872359e-05
	0.000000000000000e+00
	0.000000000000000e+00
	0.000000000000000e+00
	0.000000000000000e+00
	0.000000000000000e+00
	0.000000000000000e+00
	0.000000000000000e+00
31		1.114999999999969e+01
	7.600086242622017e-01
	7.081910941982708e-01
	7.600086242572524e-01
	7.600086242697116e-01
	1.800000000000000e+00
	0.000000000000000e+00
	0.000000000000000e+00
	0.000000000000000e+00
	0.000000000000000e+00
	-2.747913822531700e-05
	7.509786965787097e-06
	1.245915777470906e-05
	6.967919681623613e-06
	-7.509787070261695e-06
	5.418673893348746e-07
	-6.967919582864003e-16
	6.976504504733776e-06
	-7.509720088494562e-06
	5.332155844584363e-07
	-6.976504375959363e-16
	7.509881605471946e-06
	7.509881605471946e-06
	1.245925584925089e-05
	0.000000000000000e+00
	0.000000000000000e+00
	0.000000000000000e+00
	0.000000000000000e+00
	0.000000000000000e+00
	0.000000000000000e+00
	0.000000000000000e+00
32		1.279999999999967e+01
	7.573293067619019e-01
	7.052058780217733e-01
	7.573293067570407e-01
	7.573293067694560e-01
	1.800000000000000e+00
	0.000000000000000e+00
	0.000000000000000e+00
	0.000000000000000e+00
	0.000000000000000e+00
	-2.752314321696758e-05
	7.554120107265022e-06
	1.241523453700067e-05
	7.014482299856531e-06
	-7.554120183219212e-06
	5.396378840641292e-07
	-7.014482227658616e-16
	7.022947710623562e-06
	-7.554125440686594e-06
	5.311777307653271e-07
	-7.022947659467080e-16
	7.554068481852028e-06
	7.554068481852028e-06
	1.241529101747574e-05
	0.000000000000000e+00
	0.000000000000000e+00
	0.000000000000000e+00
	0.000000000000000e+00
	0.000000000000000e+00
	0.000000000000000e+00
	0.000000000000000e+00
33		1.444999999999965e+01
	7.546462870915643e-01
	7.022169093429554e-01
	7.546462870867915e-01
	7.546462870991628e-01
	1.800000000000000e+00
	0.000000000000000e+00
	0.000000000000000e+00
	0.000000000000000e+00
	0.000000000000000e+00
	-2.756854519248009e-05
	7.598460543276652e-06
	1.237125060798019e-05
	7.061036492828318e-06
	-7.598460627441518e-06
	5.374241353193033e-07
	-7.061036412948987e-16
	7.069372957087542e-06
	-7.598526601989365e-06
	5.291536456087600e-07
	-7.069372882664710e-16
	7.598477402837034e-06
	7.598477402837034e-06
	1.237132618570058e-05
	0.000000000000000e+00
	0.000000000000000e+00
	0.000000000000000e+00
	0.000000000000000e+00
	0.000000000000000e+00
	0.000000000000000e+00
	0.000000000000000e+00
34		1.609999999999962e+01
	7.519583326415592e-01
	6.992238036036394e-01
	7.519583326368746e-01
	7.519583326492019e-01
	1.800000000000000e+00
	0.000000000000000e+00
	0.000000000000000e+00
	0.000000000000000e+00
	0.000000000000000e+00
	-2.761278301477432e-05
	7.642685367814457e-06
	1.232718578093237e-05
	7.107467887850420e-06
	-7.642685469990349e-06
	5.352175828506753e-07
	-7.107467791398897e-16
	7.115432460184774e-06
	-7.642549659261033e-06
	5.271171997878023e-07
	-7.115432329440792e-16
	7.642664279217115e-06
	7.642664279217115e-06
	1.232725033162296e-05
	0.000000000000000e+00
	0.000000000000000e+00
	0.000000000000000e+00
	0.000000000000000e+00
	0.000000000000000e+00
	0.000000000000000e+00
	0.000000000000000e+00
35		1.774999999999960e+01
	7.492686866677766e-01
	6.962276243178002e-01
	7.492686866631805e-01
	7.492686866754636e-01
	1.800000000000000e+00
	0.000000000000000e+00
	0.000000000000000e+00
	0.000000000000000e+00
	0.000000000000000e+00
	-2.765725366771221e-05
	7.687110485503827e-06
	1.228309322398657e-05
	7.154070769125547e-06
	-7.687110541144475e-06
	5.330397727343357e-07
	-7.154070715817453e-16
	7.162019841474109e-06
	-7.687155114959430e-06
	5.251352742015233e-07
	-7.162019825416865e-16
	7.687073200202121e-06
	7.687073200202121e-06
	1.228317447754534e-05
	0.000000000000000e+00
	0.000000000000000e+00
	0.000000000000000e+00
	0.000000000000000e+00
	0.000000000000000e+00
	0.000000000000000e+00
	0.000000000000000e+00
36		1.939999999999958e+01
	7.465742769153952e-01
	6.932273917515596e-01
	7.465742769108877e-01
	7.465742769231267e-01
	1.800000000000000e+00
	0.000000000000000e+00
	0.000000000000000e+00
	0.000000000000000e+00
	0.000000000000000e+00
	-2.770195715129375e-05
	7.731432632439953e-06
	1.223892257230964e-05
	7.200562914902988e-06
	-7.731432729249991e-06
	5.308698150670592e-07
	-7.200562823193694e-16
	7.208277162720506e-06
	-7.731420781671916e-06
	5.231436196722390e-07
	-7.208277042123970e-16
	7.731482121187128e-06
	7.731482121187128e-06
	1.223898760116526e-05
	0.000000000000000e+00
	0.000000000000000e+00
	0.000000000000000e+00
	0.000000000000000e+00
	0.000000000000000e+00
	0.000000000000000e+00
	0.000000000000000e+00
37		2.104999999999956e+01
	7.438765896982398e-01
	6.902236004160056e-01
	7.438765896938208e-01
	7.438765897060156e-01
	1.800000000000000e+00
	0.000000000000000e+00
	0.000000000000000e+00
	0.000000000000000e+00
	0.000000000000000e+00
	-2.774642780423164e-05
	7.775795548149878e-06
	1.219469819170198e-05
	7.247078272292106e-06
	-7.775795622114360e-06
	5.287173505469622e-07
	-7.247078201766781e-16
	7.254611099064574e-06
	-7.775783451373738e-06
	5.211723530346261e-07
	-7.254611041775105e-16
	7.775780019869671e-06
	7.775780019869671e-06
	1.219480072478518e-05
	0.000000000000000e+00
	0.000000000000000e+00
	0.000000000000000e+00
	0.000000000000000e+00
	0.000000000000000e+00
	0.000000000000000e+00
	0.000000000000000e+00
38		2.269999999999953e+01
	7.411759634939357e-01
	6.872163737618596e-01
	7.411759634896053e-01
	7.411759635017559e-01
	1.800000000000000e+00
	0.000000000000000e+00
	0.000000000000000e+00
	0.000000000000000e+00
	0.000000000000000e+00
	-2.779113128781319e-05
	7.820230395953050e-06
	1.215042563097714e-05
	7.293646223555215e-06
	-7.820230464388816e-06
	5.265842415629655e-07
	-7.293646158102740e-16
	7.301110244604455e-06
	-7.820337779769420e-06
	5.192275358950747e-07
	-7.301110198600496e-16
	7.820188940854678e-06
	7.820188940854678e-06
	1.215050282610264e-05
	0.000000000000000e+00
	0.000000000000000e+00
	0.000000000000000e+00
	0.000000000000000e+00
	0.000000000000000e+00
	0.000000000000000e+00
	0.000000000000000e+00
39		2.434999999999951e+01
	7.384702725832628e-01
	6.842050377182537e-01
	7.384702725790212e-01
	7.384702725911274e-01
	1.800000000000000e+00
	0.000000000000000e+00
	0.000000000000000e+00
	0.000000000000000e+00
	0.000000000000000e+00
	-2.783536911010742e-05
	7.864526792030306e-06
	1.210607004227904e-05
	7.340070392109198e-06
	-7.864526889987748e-06
	5.244564986125563e-07
	-7.340070299229097e-16
	7.347177951132155e-06
	-7.864444147086388e-06
	5.172661966889519e-07
	-7.347177817128431e-16
	7.864597861839684e-06
	7.864597861839684e-06
	1.210620492742009e-05
	0.000000000000000e+00
	0.000000000000000e+00
	0.000000000000000e+00
	0.000000000000000e+00